    2    2    1    1
  0.3367949E+02  0.4661042E-09  0.4661042E-09  0.4661042E-09  0.5000000E-15
  1.000000000000000E-004
  CAR 
 HgTe                                    
     18     20     30
 
  0.5000000E+00  0.5000000E+00  0.0000000E+00  0.5000000E-01
    1       -8.141306
    2       -8.141306
    3       -4.973308
    4       -4.973308
    5       -4.622804
    6       -4.622804
    7       -3.498575
    8       -3.498575
    9       -3.115740
   10       -3.115740
   11       -2.714833
   12       -2.714833
   13       -2.232918
   14       -2.232918
   15        0.635049
   16        0.635049
   17        0.992872
   18        0.992872
   19        4.969612
   20        4.969612
   21        5.661281
   22        5.661281
   23       11.014678
   24       11.014679
   25       11.719381
   26       11.719381
   27       12.366600
   28       12.366601
   29       13.402635
   30       13.402684
 
  0.4736842E+00  0.4736842E+00  0.0000000E+00  0.5000000E-01
    1       -8.147013
    2       -8.146918
    3       -4.975118
    4       -4.973136
    5       -4.631864
    6       -4.626350
    7       -3.504339
    8       -3.495412
    9       -3.120951
   10       -3.116856
   11       -2.745951
   12       -2.742196
   13       -2.184933
   14       -2.176021
   15        0.645990
   16        0.649376
   17        1.004408
   18        1.004784
   19        4.970076
   20        4.971645
   21        5.669806
   22        5.674406
   23       10.939680
   24       10.990765
   25       11.614858
   26       11.718563
   27       12.267530
   28       12.318302
   29       13.392458
   30       13.400954
 
  0.4473684E+00  0.4473684E+00  0.0000000E+00  0.5000000E-01
    1       -8.163794
    2       -8.163604
    3       -4.978618
    4       -4.974594
    5       -4.652785
    6       -4.641721
    7       -3.512179
    8       -3.495389
    9       -3.132032
   10       -3.124124
   11       -2.810949
   12       -2.802341
   13       -2.057166
   14       -2.041404
   15        0.681874
   16        0.688731
   17        1.039300
   18        1.039887
   19        4.973667
   20        4.976627
   21        5.698631
   22        5.707913
   23       10.783672
   24       10.872342
   25       11.426859
   26       11.607942
   27       12.054315
   28       12.136362
   29       13.372016
   30       13.383841
 
  0.4210526E+00  0.4210526E+00  0.0000000E+00  0.5000000E-01
    1       -8.191109
    2       -8.190823
    3       -4.983747
    4       -4.977543
    5       -4.683609
    6       -4.666988
    7       -3.521533
    8       -3.498800
    9       -3.148057
   10       -3.136862
   11       -2.879131
   12       -2.865746
   13       -1.882926
   14       -1.861986
   15        0.741835
   16        0.752341
   17        1.097093
   18        1.097567
   19        4.981920
   20        4.985988
   21        5.744077
   22        5.758290
   23       10.574782
   24       10.684060
   25       11.180338
   26       11.406672
   27       11.771630
   28       11.866781
   29       13.340305
   30       13.350923
 
  0.3947368E+00  0.3947368E+00  0.0000000E+00  0.5000000E-01
    1       -8.228092
    2       -8.227711
    3       -4.990477
    4       -4.981919
    5       -4.721616
    6       -4.699520
    7       -3.532085
    8       -3.505812
    9       -3.167389
   10       -3.153686
   11       -2.938705
   12       -2.921522
   13       -1.678428
   14       -1.653539
   15        0.824510
   16        0.838956
   17        1.176876
   18        1.176985
   19        4.996284
   20        5.001120
   21        5.800605
   22        5.820248
   23       10.339365
   24       10.455263
   25       10.897292
   26       11.144823
   27       11.451709
   28       11.550506
   29       13.297391
   30       13.305175
 
  0.3684211E+00  0.3684211E+00  0.0000000E+00  0.5000000E-01
    1       -8.273501
    2       -8.273031
    3       -4.998676
    4       -4.987552
    5       -4.763725
    6       -4.736351
    7       -3.543704
    8       -3.516352
    9       -3.187822
   10       -3.172544
   11       -2.987471
   12       -2.967836
   13       -1.451489
   14       -1.423620
   15        0.928127
   16        0.946939
   17        1.276601
   18        1.277893
   19        5.017439
   20        5.022634
   21        5.861400
   22        5.887248
   23       10.098358
   24       10.209530
   25       10.597049
   26       10.849505
   27       11.115164
   28       11.213752
   29       13.245912
   30       13.250693
 
  0.3421053E+00  0.3421053E+00  0.0000000E+00  0.5000000E-01
    1       -8.325856
    2       -8.325303
    3       -5.008193
    4       -4.994306
    5       -4.807130
    6       -4.774814
    7       -3.556399
    8       -3.530141
    9       -3.207092
   10       -3.191199
   11       -3.026674
   12       -3.005949
   13       -1.206899
   14       -1.176848
   15        1.050559
   16        1.074341
   17        1.395271
   18        1.398453
   19        5.044426
   20        5.049412
   21        5.919040
   22        5.952015
   23        9.866416
   24        9.959443
   25       10.300019
   26       10.541510
   27       10.776739
   28       10.873057
   29       13.188421
   30       13.190604
 
  0.3157895E+00  0.3157895E+00  0.0000000E+00  0.5000000E-01
    1       -8.383509
    2       -8.382883
    3       -5.018708
    4       -5.001887
    5       -4.849508
    6       -4.812697
    7       -3.570232
    8       -3.546643
    9       -3.223395
   10       -3.207656
   11       -3.058318
   12       -3.037703
   13       -0.948182
   14       -0.916560
   15        1.189421
   16        1.218955
   17        1.531221
   18        1.537090
   19        5.073749
   20        5.077527
   21        5.966894
   22        6.007672
   23        9.649160
   24        9.701134
   25       10.034186
   26       10.238404
   27       10.451568
   28       10.542036
   29       13.128253
   30       13.128331
 
  0.2894737E+00  0.2894737E+00  0.0000000E+00  0.5000000E-01
    1       -8.444676
    2       -8.443994
    3       -5.030001
    4       -5.010197
    5       -4.889236
    6       -4.848523
    7       -3.585241
    8       -3.565195
    9       -3.235917
   10       -3.220711
   11       -3.084188
   12       -3.064722
   13       -0.678286
   14       -0.645509
   15        1.341979
   16        1.378278
   17        1.682642
   18        1.692012
   19        5.097693
   20        5.098392
   21        6.002135
   22        6.050330
   23        9.419593
   24        9.434710
   25        9.822932
   26        9.952027
   27       10.168697
   28       10.241313
   29       13.065891
   30       13.067799
 
  0.2631579E+00  0.2631579E+00  0.0000000E+00  0.5000000E-01
    1       -8.507489
    2       -8.506770
    3       -5.041599
    4       -5.018945
    5       -4.925167
    6       -4.881316
    7       -3.601104
    8       -3.584879
    9       -3.244438
   10       -3.229824
   11       -3.105531
   12       -3.088055
   13       -0.399573
   14       -0.365892
   15        1.505270
   16        1.549590
   17        1.847496
   18        1.861174
   19        5.097368
   20        5.103013
   21        6.030148
   22        6.083353
   23        9.116773
   24        9.195977
   25        9.632911
   26        9.669738
   27        9.990833
   28       10.025856
   29       13.006079
   30       13.008450
 
  0.2368421E+00  0.2368421E+00  0.0000000E+00  0.5000000E-01
    1       -8.570177
    2       -8.569444
    3       -5.053167
    4       -5.028044
    5       -4.956675
    6       -4.910683
    7       -3.617444
    8       -3.604864
    9       -3.249393
   10       -3.235141
   11       -3.123279
   12       -3.108482
   13       -0.114207
   14       -0.079639
   15        1.675868
   16        1.729663
   17        2.023558
   18        2.042212
   19        5.054782
   20        5.071181
   21        6.065759
   22        6.119582
   23        8.807196
   24        8.923046
   25        9.379765
   26        9.394654
   27        9.953859
   28        9.965683
   29       12.911091
   30       12.946186
 
  0.2105263E+00  0.2105263E+00  0.0000000E+00  0.5000000E-01
    1       -8.631040
    2       -8.630313
    3       -5.064287
    4       -5.037484
    5       -4.983384
    6       -4.936577
    7       -3.633760
    8       -3.624374
    9       -3.251293
   10       -3.237159
   11       -3.138120
   12       -3.126447
   13        0.175946
   14        0.211609
   15        1.849810
   16        1.914803
   17        2.208314
   18        2.232377
   19        4.954817
   20        4.985442
   21        6.125414
   22        6.175772
   23        8.502680
   24        8.632999
   25        9.094069
   26        9.124246
   27       10.035236
   28       10.040310
   29       12.401847
   30       12.479691
 
  0.1842105E+00  0.1842105E+00  0.0000000E+00  0.5000000E-01
    1       -8.688479
    2       -8.687779
    3       -5.074539
    4       -5.047414
    5       -5.004924
    6       -4.959181
    7       -3.649437
    8       -3.642723
    9       -3.250741
   10       -3.236519
   11       -3.150555
   12       -3.142282
   13        0.469221
   14        0.506480
   15        2.022482
   16        2.100674
   17        2.398757
   18        2.428309
   19        4.795599
   20        4.841064
   21        6.214887
   22        6.260347
   23        8.212882
   24        8.345786
   25        8.822439
   26        8.855021
   27       10.206652
   28       10.208909
   29       11.939250
   30       12.003880
 
  0.1578947E+00  0.1578947E+00  0.0000000E+00  0.5000000E-01
    1       -8.741082
    2       -8.740434
    3       -5.083662
    4       -5.058031
    5       -5.021094
    6       -4.978667
    7       -3.663967
    8       -3.659358
    9       -3.248317
   10       -3.233913
   11       -3.161027
   12       -3.156226
   13        0.763906
   14        0.803683
   15        2.188336
   16        2.282131
   17        2.591067
   18        2.625719
   19        4.587957
   20        4.646969
   21        6.326242
   22        6.367378
   23        7.949167
   24        8.078345
   25        8.571163
   26        8.601778
   27       10.442027
   28       10.443618
   29       11.500410
   30       11.551244
 
  0.1315789E+00  0.1315789E+00  0.0000000E+00  0.5000000E-01
    1       -8.787659
    2       -8.787084
    3       -5.091385
    4       -5.069002
    5       -5.032282
    6       -4.995310
    7       -3.676899
    8       -3.673888
    9       -3.244514
   10       -3.229954
   11       -3.169902
   12       -3.168522
   13        1.058033
   14        1.101752
   15        2.340556
   16        2.453007
   17        2.780104
   18        2.819057
   19        4.347304
   20        4.418440
   21        6.440980
   22        6.477864
   23        7.729034
   24        7.849569
   25        8.346234
   26        8.373233
   27       10.670265
   28       10.681442
   29       11.149046
   30       11.178112
 
  0.1052632E+00  0.1052632E+00  0.0000000E+00  0.5000000E-01
    1       -8.827129
    2       -8.826643
    3       -5.097499
    4       -5.079428
    5       -5.039449
    6       -5.009317
    7       -3.687877
    8       -3.686021
    9       -3.239707
   10       -3.225187
   11       -3.179359
   12       -3.177544
   13        1.348892
   14        1.398652
   15        2.470655
   16        2.605660
   17        2.958632
   18        3.000911
   19        4.089522
   20        4.171824
   21        6.530784
   22        6.560130
   23        7.580079
   24        7.684589
   25        8.155377
   26        8.177964
   27       10.539239
   28       10.571353
   29       11.232435
   30       11.233886
 
  0.7894737E-01  0.7894737E-01  0.0000000E+00  0.5000000E-01
    1       -8.858659
    2       -8.858280
    3       -5.101962
    4       -5.088517
    5       -5.043601
    6       -5.020877
    7       -3.696674
    8       -3.695592
    9       -3.234241
   10       -3.220075
   11       -3.188928
   12       -3.184265
   13        1.631898
   14        1.690532
   15        2.568013
   16        2.729121
   17        3.116434
   18        3.161629
   19        3.832922
   20        3.924048
   21        6.565565
   22        6.581569
   23        7.526709
   24        7.604875
   25        8.010101
   26        8.027096
   27       10.213432
   28       10.239858
   29       11.587401
   30       11.590214
 
  0.5263158E-01  0.5263158E-01  0.0000000E+00  0.5000000E-01
    1       -8.881636
    2       -8.881376
    3       -5.104584
    4       -5.095732
    5       -5.045213
    6       -5.030065
    7       -3.703034
    8       -3.702468
    9       -3.228262
   10       -3.215130
   11       -3.197106
   12       -3.190290
   13        1.898195
   14        1.967869
   15        2.621190
   16        2.802987
   17        3.239103
   18        3.289197
   19        3.609058
   20        3.696129
   21        6.544490
   22        6.548051
   23        7.545436
   24        7.591713
   25        7.928059
   26        7.936746
   27        9.922436
   28        9.941207
   29       11.994096
   30       11.994539
 
  0.2631579E-01  0.2631579E-01  0.0000000E+00  0.5000000E-01
    1       -8.895560
    2       -8.895427
    3       -5.105299
    4       -5.100918
    5       -5.044604
    6       -5.037043
    7       -3.706873
    8       -3.706636
    9       -3.222011
   10       -3.212275
   11       -3.202388
   12       -3.195806
   13        2.127853
   14        2.197727
   15        2.633625
   16        2.787949
   17        3.310042
   18        3.367241
   19        3.478638
   20        3.519279
   21        6.504089
   22        6.505155
   23        7.570688
   24        7.589101
   25        7.914156
   26        7.914933
   27        9.719296
   28        9.729389
   29       12.399140
   30       12.406697
 
  0.0000000E+00  0.0000000E+00  0.0000000E+00  0.5000000E-01
    1       -8.900165
    2       -8.900165
    3       -5.104095
    4       -5.104095
    5       -5.041888
    6       -5.041888
    7       -3.708096
    8       -3.708096
    9       -3.215859
   10       -3.215859
   11       -3.200640
   12       -3.200640
   13        2.266191
   14        2.266191
   15        2.686001
   16        2.686001
   17        3.356449
   18        3.356450
   19        3.453973
   20        3.453973
   21        6.486314
   22        6.486314
   23        7.580565
   24        7.580565
   25        7.921233
   26        7.921233
   27        9.647911
   28        9.647911
   29       12.703778
   30       12.741374
