 
             +---------------------------------------------------+
             |                                                   |
             |                   WANNIER90                       |
             |                                                   |
             +---------------------------------------------------+
             |                                                   |
             |        Welcome to the Maximally-Localized         |
             |        Generalized Wannier Functions code         |
             |            http://www.wannier.org                 |
             |                                                   |
             |  Wannier90 v2.0 Authors:                          |
             |    Arash A. Mostofi  (Imperial College London)    |
             |    Giovanni Pizzi    (EPFL)                       |
             |    Ivo Souza         (Universidad del Pais Vasco) |
             |    Jonathan R. Yates (University of Oxford)       |
             |                                                   |
             |  Wannier90 Contributors:                          |
             |    Young-Su Lee      (KIST, S. Korea)             |
             |    Matthew Shelley   (Imperial College London)    |
             |    Nicolas Poilvert  (Harvard)                    |
             |                                                   |
             |  Wannier77 Authors:                               |
             |    Nicola Marzari    (EPFL)                       |
             |    Ivo Souza         (Universidad del Pais Vasco) |
             |    David Vanderbilt  (Rutgers University)         |
             |                                                   |
             |  Please cite                                      |
             |                                                   |
             |  [ref] "Wannier90: A Tool for Obtaining Maximally |
             |         Localised Wannier Functions"              |
             |        A. A. Mostofi, J. R. Yates, Y.-S. Lee,     |
             |        I. Souza, D. Vanderbilt and N. Marzari     |
             |        Comput. Phys. Commun. 178, 685 (2008)      |
             |                                                   |
             |  in any publications arising from the use of      |
             |  this code. For the method please cite            |
             |                                                   |
             |  [ref] "Maximally Localized Generalised Wannier   |
             |         Functions for Composite Energy Bands"     |
             |         N. Marzari and D. Vanderbilt              |
             |         Phys. Rev. B 56 12847 (1997)              |
             |                                                   |
             |  [ref] "Maximally Localized Wannier Functions     |
             |         for Entangled Energy Bands"               |
             |         I. Souza, N. Marzari and D. Vanderbilt    |
             |         Phys. Rev. B 65 035109 (2001)             |
             |                                                   |
             |                                                   |
             | Copyright (c) 1996-2013                           |
             |        A. A. Mostofi, J. R. Yates, Y.-S. Lee,     |
             |        I. Souza, D. Vanderbilt and N. Marzari     |
             |                                                   |
             |        Release: 2.0    14th October 2013          |
             |                                                   |
             | This program is free software; you can            |
             | redistribute it and/or modify it under the terms  |
             | of the GNU General Public License as published by |
             | the Free Software Foundation; either version 2 of |
             | the License, or (at your option) any later version|
             |                                                   |
             | This program is distributed in the hope that it   |
             | will be useful, but WITHOUT ANY WARRANTY; without |
             | even the implied warranty of MERCHANTABILITY or   |
             | FITNESS FOR A PARTICULAR PURPOSE. See the GNU     |
             | General Public License for more details.          |
             |                                                   |
             | You should have received a copy of the GNU General|
             | Public License along with this program; if not,   |
             | write to the Free Software Foundation, Inc.,      |
             | 675 Mass Ave, Cambridge, MA 02139, USA.           |
             |                                                   |
             +---------------------------------------------------+
             |    Execution started on 11Feb2015 at 14:15:14     |
             +---------------------------------------------------+
 
 ******************************************************************************
 * -> Using CODATA 2006 constant values                                       *
 *    (http://physics.nist.gov/cuu/Constants/index.html)                      *
 * -> Using Bohr value from CODATA                                            *
 ******************************************************************************
 
 
                                    ------
                                    SYSTEM
                                    ------
 
                              Lattice Vectors (Ang)
                    a_1     0.000000   2.828375   2.828375
                    a_2     2.828375   0.000000   2.828375
                    a_3     2.828375   2.828375   0.000000
 
                   Unit Cell Volume:      45.25233  (Ang^3)
 
                        Reciprocal-Space Vectors (Ang^-1)
                    b_1    -1.110741   1.110741   1.110741
                    b_2     1.110741  -1.110741   1.110741
                    b_3     1.110741   1.110741  -1.110741
  
 *----------------------------------------------------------------------------*
 |   Site       Fractional Coordinate          Cartesian Coordinate (Ang)     |
 +----------------------------------------------------------------------------+
 | Ge   1   0.00000   0.00000   0.00000   |    0.00000   0.00000   0.00000    |
 | Ge   2   0.25000   0.25000   0.25000   |    1.41419   1.41419   1.41419    |
 *----------------------------------------------------------------------------*
  
                                -----------
                                PROJECTIONS
                                -----------
  
 +----------------------------------------------------------------------------+
 |     Frac. Coord.   l mr  r        z-axis               x-axis          Z/a |
 +----------------------------------------------------------------------------+
 |  0.00  0.00  0.00  1  1  1  0.000  0.000  1.000  1.000  0.000  0.000   1.0 |
 |  0.00  0.00  0.00  1  1  1  0.000  0.000  1.000  1.000  0.000  0.000   1.0 |
 |  0.00  0.00  0.00  1  2  1  0.000  0.000  1.000  1.000  0.000  0.000   1.0 |
 |  0.00  0.00  0.00  1  2  1  0.000  0.000  1.000  1.000  0.000  0.000   1.0 |
 |  0.00  0.00  0.00  1  3  1  0.000  0.000  1.000  1.000  0.000  0.000   1.0 |
 |  0.00  0.00  0.00  1  3  1  0.000  0.000  1.000  1.000  0.000  0.000   1.0 |
 |  0.25  0.25  0.25  1  1  1  0.000  0.000  1.000  1.000  0.000  0.000   1.0 |
 |  0.25  0.25  0.25  1  1  1  0.000  0.000  1.000  1.000  0.000  0.000   1.0 |
 |  0.25  0.25  0.25  1  2  1  0.000  0.000  1.000  1.000  0.000  0.000   1.0 |
 |  0.25  0.25  0.25  1  2  1  0.000  0.000  1.000  1.000  0.000  0.000   1.0 |
 |  0.25  0.25  0.25  1  3  1  0.000  0.000  1.000  1.000  0.000  0.000   1.0 |
 |  0.25  0.25  0.25  1  3  1  0.000  0.000  1.000  1.000  0.000  0.000   1.0 |
 |  0.12  0.12  0.12  0  1  1  0.000  0.000  1.000  1.000  0.000  0.000   1.0 |
 |  0.12  0.12  0.12  0  1  1  0.000  0.000  1.000  1.000  0.000  0.000   1.0 |
 +----------------------------------------------------------------------------+
  
                                ------------
                                K-POINT GRID
                                ------------
  
             Grid size =  8 x  8 x  8      Total points =  512
  
 *----------------------------------------------------------------------------*
 | k-point      Fractional Coordinate        Cartesian Coordinate (Ang^-1)    |
 +----------------------------------------------------------------------------+
 |     1    0.00000   0.00000   0.00000   |    0.00000   0.00000   0.00000    |
 |     2    0.12500   0.00000   0.00000   |   -0.13884   0.13884   0.13884    |
 |     3    0.25000   0.00000   0.00000   |   -0.27769   0.27769   0.27769    |
 |     4    0.37500   0.00000   0.00000   |   -0.41653   0.41653   0.41653    |
 |     5    0.50000   0.00000   0.00000   |   -0.55537   0.55537   0.55537    |
 |     6    0.12500   0.12500   0.00000   |    0.00000   0.00000   0.27769    |
 |     7    0.25000   0.12500   0.00000   |   -0.13884   0.13884   0.41653    |
 |     8    0.37500   0.12500   0.00000   |   -0.27769   0.27769   0.55537    |
 |     9    0.50000   0.12500   0.00000   |   -0.41653   0.41653   0.69421    |
 |    10   -0.37500   0.12500   0.00000   |    0.55537  -0.55537  -0.27769    |
 |    11   -0.25000   0.12500   0.00000   |    0.41653  -0.41653  -0.13884    |
 |    12   -0.12500   0.12500   0.00000   |    0.27769  -0.27769   0.00000    |
 |    13    0.25000   0.25000   0.00000   |    0.00000   0.00000   0.55537    |
 |    14    0.37500   0.25000   0.00000   |   -0.13884   0.13884   0.69421    |
 |    15    0.50000   0.25000   0.00000   |   -0.27769   0.27769   0.83306    |
 |    16   -0.37500   0.25000   0.00000   |    0.69421  -0.69421  -0.13884    |
 |    17   -0.25000   0.25000   0.00000   |    0.55537  -0.55537   0.00000    |
 |    18    0.37500   0.37500   0.00000   |    0.00000   0.00000   0.83306    |
 |    19    0.50000   0.37500   0.00000   |   -0.13884   0.13884   0.97190    |
 |    20   -0.37500   0.37500   0.00000   |    0.83306  -0.83306   0.00000    |
 |    21    0.50000   0.50000   0.00000   |    0.00000   0.00000   1.11074    |
 |    22    0.37500   0.25000   0.12500   |    0.00000   0.27769   0.55537    |
 |    23    0.50000   0.25000   0.12500   |   -0.13884   0.41653   0.69421    |
 |    24   -0.37500   0.25000   0.12500   |    0.83306  -0.55537  -0.27769    |
 |    25    0.50000   0.37500   0.12500   |   -0.00000   0.27769   0.83306    |
 |    26   -0.37500   0.37500   0.12500   |    0.97190  -0.69421  -0.13884    |
 |    27   -0.25000   0.37500   0.12500   |    0.83306  -0.55537  -0.00000    |
 |    28   -0.37500   0.50000   0.12500   |    1.11074  -0.83306   0.00000    |
 |    29   -0.25000   0.50000   0.25000   |    1.11074  -0.55537   0.00000    |
 |    30    0.00000   0.12500   0.00000   |    0.13884  -0.13884   0.13884    |
 |    31    0.00000   0.00000   0.12500   |    0.13884   0.13884  -0.13884    |
 |    32   -0.12500  -0.12500  -0.12500   |   -0.13884  -0.13884  -0.13884    |
 |    33   -0.12500   0.00000   0.00000   |    0.13884  -0.13884  -0.13884    |
 |    34    0.00000  -0.12500   0.00000   |   -0.13884   0.13884  -0.13884    |
 |    35    0.00000   0.00000  -0.12500   |   -0.13884  -0.13884   0.13884    |
 |    36    0.12500   0.12500   0.12500   |    0.13884   0.13884   0.13884    |
 |    37    0.00000   0.25000   0.00000   |    0.27769  -0.27769   0.27769    |
 |    38    0.00000   0.00000   0.25000   |    0.27769   0.27769  -0.27769    |
 |    39   -0.25000  -0.25000  -0.25000   |   -0.27769  -0.27769  -0.27769    |
 |    40   -0.25000   0.00000   0.00000   |    0.27769  -0.27769  -0.27769    |
 |    41    0.00000  -0.25000   0.00000   |   -0.27769   0.27769  -0.27769    |
 |    42    0.00000   0.00000  -0.25000   |   -0.27769  -0.27769   0.27769    |
 |    43    0.25000   0.25000   0.25000   |    0.27769   0.27769   0.27769    |
 |    44    0.00000   0.37500   0.00000   |    0.41653  -0.41653   0.41653    |
 |    45    0.00000   0.00000   0.37500   |    0.41653   0.41653  -0.41653    |
 |    46   -0.37500  -0.37500  -0.37500   |   -0.41653  -0.41653  -0.41653    |
 |    47   -0.37500   0.00000   0.00000   |    0.41653  -0.41653  -0.41653    |
 |    48    0.00000  -0.37500   0.00000   |   -0.41653   0.41653  -0.41653    |
 |    49    0.00000   0.00000  -0.37500   |   -0.41653  -0.41653   0.41653    |
 |    50    0.37500   0.37500   0.37500   |    0.41653   0.41653   0.41653    |
 |    51    0.00000   0.50000   0.00000   |    0.55537  -0.55537   0.55537    |
 |    52    0.00000   0.00000   0.50000   |    0.55537   0.55537  -0.55537    |
 |    53   -0.50000  -0.50000  -0.50000   |   -0.55537  -0.55537  -0.55537    |
 |    54    0.00000   0.12500   0.12500   |    0.27769   0.00000   0.00000    |
 |    55    0.12500   0.00000   0.12500   |    0.00000   0.27769   0.00000    |
 |    56   -0.12500  -0.12500   0.00000   |    0.00000   0.00000  -0.27769    |
 |    57   -0.12500   0.00000  -0.12500   |    0.00000  -0.27769   0.00000    |
 |    58    0.00000  -0.12500  -0.12500   |   -0.27769   0.00000   0.00000    |
 |    59    0.00000   0.25000   0.12500   |    0.41653  -0.13884   0.13884    |
 |    60    0.12500   0.00000   0.25000   |    0.13884   0.41653  -0.13884    |
 |    61   -0.12500  -0.12500   0.12500   |    0.13884   0.13884  -0.41653    |
 |    62   -0.25000  -0.12500  -0.25000   |   -0.13884  -0.41653  -0.13884    |
 |    63    0.12500   0.25000   0.00000   |    0.13884  -0.13884   0.41653    |
 |    64    0.12500  -0.12500  -0.12500   |   -0.41653   0.13884   0.13884    |
 |    65   -0.25000  -0.25000  -0.12500   |   -0.13884  -0.13884  -0.41653    |
 |    66    0.00000   0.12500   0.25000   |    0.41653   0.13884  -0.13884    |
 |    67   -0.12500   0.12500  -0.12500   |    0.13884  -0.41653   0.13884    |
 |    68   -0.12500  -0.25000  -0.25000   |   -0.41653  -0.13884  -0.13884    |
 |    69    0.25000   0.00000   0.12500   |   -0.13884   0.41653   0.13884    |
 |    70   -0.25000  -0.12500   0.00000   |    0.13884  -0.13884  -0.41653    |
 |    71    0.00000  -0.25000  -0.12500   |   -0.41653   0.13884  -0.13884    |
 |    72   -0.12500   0.00000  -0.25000   |   -0.13884  -0.41653   0.13884    |
 |    73    0.12500   0.12500  -0.12500   |   -0.13884  -0.13884   0.41653    |
 |    74    0.25000   0.12500   0.25000   |    0.13884   0.41653   0.13884    |
 |    75   -0.12500  -0.25000   0.00000   |   -0.13884   0.13884  -0.41653    |
 |    76   -0.12500   0.12500   0.12500   |    0.41653  -0.13884  -0.13884    |
 |    77    0.25000   0.25000   0.12500   |    0.13884   0.13884   0.41653    |
 |    78    0.00000  -0.12500  -0.25000   |   -0.41653  -0.13884   0.13884    |
 |    79    0.12500  -0.12500   0.12500   |   -0.13884   0.41653  -0.13884    |
 |    80    0.12500   0.25000   0.25000   |    0.41653   0.13884   0.13884    |
 |    81   -0.25000   0.00000  -0.12500   |    0.13884  -0.41653  -0.13884    |
 |    82    0.00000   0.37500   0.12500   |    0.55537  -0.27769   0.27769    |
 |    83    0.12500   0.00000   0.37500   |    0.27769   0.55537  -0.27769    |
 |    84   -0.12500  -0.12500   0.25000   |    0.27769   0.27769  -0.55537    |
 |    85   -0.37500  -0.25000  -0.37500   |   -0.27769  -0.55537  -0.27769    |
 |    86    0.12500   0.37500   0.00000   |    0.27769  -0.27769   0.55537    |
 |    87    0.25000  -0.12500  -0.12500   |   -0.55537   0.27769   0.27769    |
 |    88   -0.37500  -0.37500  -0.25000   |   -0.27769  -0.27769  -0.55537    |
 |    89    0.00000   0.12500   0.37500   |    0.55537   0.27769  -0.27769    |
 |    90   -0.12500   0.25000  -0.12500   |    0.27769  -0.55537   0.27769    |
 |    91   -0.25000  -0.37500  -0.37500   |   -0.55537  -0.27769  -0.27769    |
 |    92    0.37500   0.00000   0.12500   |   -0.27769   0.55537   0.27769    |
 |    93   -0.37500  -0.12500   0.00000   |    0.27769  -0.27769  -0.55537    |
 |    94    0.00000  -0.37500  -0.12500   |   -0.55537   0.27769  -0.27769    |
 |    95   -0.12500   0.00000  -0.37500   |   -0.27769  -0.55537   0.27769    |
 |    96    0.12500   0.12500  -0.25000   |   -0.27769  -0.27769   0.55537    |
 |    97    0.37500   0.25000   0.37500   |    0.27769   0.55537   0.27769    |
 |    98   -0.12500  -0.37500   0.00000   |   -0.27769   0.27769  -0.55537    |
 |    99   -0.25000   0.12500   0.12500   |    0.55537  -0.27769  -0.27769    |
 |   100    0.37500   0.37500   0.25000   |    0.27769   0.27769   0.55537    |
 |   101    0.00000  -0.12500  -0.37500   |   -0.55537  -0.27769   0.27769    |
 |   102    0.12500  -0.25000   0.12500   |   -0.27769   0.55537  -0.27769    |
 |   103    0.25000   0.37500   0.37500   |    0.55537   0.27769   0.27769    |
 |   104   -0.37500   0.00000  -0.12500   |    0.27769  -0.55537  -0.27769    |
 |   105    0.00000   0.50000   0.12500   |    0.69421  -0.41653   0.41653    |
 |   106    0.12500   0.00000   0.50000   |    0.41653   0.69421  -0.41653    |
 |   107   -0.12500  -0.12500   0.37500   |    0.41653   0.41653  -0.69421    |
 |   108   -0.50000  -0.37500  -0.50000   |   -0.41653  -0.69421  -0.41653    |
 |   109    0.12500   0.50000   0.00000   |    0.41653  -0.41653   0.69421    |
 |   110    0.37500  -0.12500  -0.12500   |   -0.69421   0.41653   0.41653    |
 |   111   -0.50000  -0.50000  -0.37500   |   -0.41653  -0.41653  -0.69421    |
 |   112    0.00000   0.12500   0.50000   |    0.69421   0.41653  -0.41653    |
 |   113   -0.12500   0.37500  -0.12500   |    0.41653  -0.69421   0.41653    |
 |   114   -0.37500  -0.50000  -0.50000   |   -0.69421  -0.41653  -0.41653    |
 |   115    0.50000   0.00000   0.12500   |   -0.41653   0.69421   0.41653    |
 |   116   -0.50000  -0.12500   0.00000   |    0.41653  -0.41653  -0.69421    |
 |   117    0.00000  -0.50000  -0.12500   |   -0.69421   0.41653  -0.41653    |
 |   118   -0.12500   0.00000  -0.50000   |   -0.41653  -0.69421   0.41653    |
 |   119    0.12500   0.12500  -0.37500   |   -0.41653  -0.41653   0.69421    |
 |   120    0.50000   0.37500   0.50000   |    0.41653   0.69421   0.41653    |
 |   121   -0.12500  -0.50000   0.00000   |   -0.41653   0.41653  -0.69421    |
 |   122   -0.37500   0.12500   0.12500   |    0.69421  -0.41653  -0.41653    |
 |   123    0.50000   0.50000   0.37500   |    0.41653   0.41653   0.69421    |
 |   124    0.00000  -0.12500  -0.50000   |   -0.69421  -0.41653   0.41653    |
 |   125    0.12500  -0.37500   0.12500   |   -0.41653   0.69421  -0.41653    |
 |   126    0.37500   0.50000   0.50000   |    0.69421   0.41653   0.41653    |
 |   127   -0.50000   0.00000  -0.12500   |    0.41653  -0.69421  -0.41653    |
 |   128    0.00000  -0.37500   0.12500   |   -0.27769   0.55537  -0.55537    |
 |   129    0.12500   0.00000  -0.37500   |   -0.55537  -0.27769   0.55537    |
 |   130   -0.12500  -0.12500  -0.50000   |   -0.55537  -0.55537   0.27769    |
 |   131    0.37500   0.50000   0.37500   |    0.55537   0.27769   0.55537    |
 |   132    0.12500  -0.37500   0.00000   |   -0.55537   0.55537  -0.27769    |
 |   133   -0.50000  -0.12500  -0.12500   |    0.27769  -0.55537  -0.55537    |
 |   134    0.37500   0.37500   0.50000   |    0.55537   0.55537   0.27769    |
 |   135    0.00000   0.12500  -0.37500   |   -0.27769  -0.55537   0.55537    |
 |   136   -0.12500  -0.50000  -0.12500   |   -0.55537   0.27769  -0.55537    |
 |   137    0.50000   0.37500   0.37500   |    0.27769   0.55537   0.55537    |
 |   138   -0.37500   0.00000   0.12500   |    0.55537  -0.27769  -0.55537    |
 |   139    0.37500  -0.12500   0.00000   |   -0.55537   0.55537   0.27769    |
 |   140    0.00000   0.37500  -0.12500   |    0.27769  -0.55537   0.55537    |
 |   141   -0.12500   0.00000   0.37500   |    0.55537   0.27769  -0.55537    |
 |   142    0.12500   0.12500   0.50000   |    0.55537   0.55537  -0.27769    |
 |   143   -0.37500  -0.50000  -0.37500   |   -0.55537  -0.27769  -0.55537    |
 |   144   -0.12500   0.37500   0.00000   |    0.55537  -0.55537   0.27769    |
 |   145    0.50000   0.12500   0.12500   |   -0.27769   0.55537   0.55537    |
 |   146   -0.37500  -0.37500  -0.50000   |   -0.55537  -0.55537  -0.27769    |
 |   147    0.00000  -0.12500   0.37500   |    0.27769   0.55537  -0.55537    |
 |   148    0.12500   0.50000   0.12500   |    0.55537  -0.27769   0.55537    |
 |   149   -0.50000  -0.37500  -0.37500   |   -0.27769  -0.55537  -0.55537    |
 |   150    0.37500   0.00000  -0.12500   |   -0.55537   0.27769   0.55537    |
 |   151    0.00000  -0.25000   0.12500   |   -0.13884   0.41653  -0.41653    |
 |   152    0.12500   0.00000  -0.25000   |   -0.41653  -0.13884   0.41653    |
 |   153   -0.12500  -0.12500  -0.37500   |   -0.41653  -0.41653   0.13884    |
 |   154    0.25000   0.37500   0.25000   |    0.41653   0.13884   0.41653    |
 |   155    0.12500  -0.25000   0.00000   |   -0.41653   0.41653  -0.13884    |
 |   156   -0.37500  -0.12500  -0.12500   |    0.13884  -0.41653  -0.41653    |
 |   157    0.25000   0.25000   0.37500   |    0.41653   0.41653   0.13884    |
 |   158    0.00000   0.12500  -0.25000   |   -0.13884  -0.41653   0.41653    |
 |   159   -0.12500  -0.37500  -0.12500   |   -0.41653   0.13884  -0.41653    |
 |   160    0.37500   0.25000   0.25000   |    0.13884   0.41653   0.41653    |
 |   161   -0.25000   0.00000   0.12500   |    0.41653  -0.13884  -0.41653    |
 |   162    0.25000  -0.12500   0.00000   |   -0.41653   0.41653   0.13884    |
 |   163    0.00000   0.25000  -0.12500   |    0.13884  -0.41653   0.41653    |
 |   164   -0.12500   0.00000   0.25000   |    0.41653   0.13884  -0.41653    |
 |   165    0.12500   0.12500   0.37500   |    0.41653   0.41653  -0.13884    |
 |   166   -0.25000  -0.37500  -0.25000   |   -0.41653  -0.13884  -0.41653    |
 |   167   -0.12500   0.25000   0.00000   |    0.41653  -0.41653   0.13884    |
 |   168    0.37500   0.12500   0.12500   |   -0.13884   0.41653   0.41653    |
 |   169   -0.25000  -0.25000  -0.37500   |   -0.41653  -0.41653  -0.13884    |
 |   170    0.00000  -0.12500   0.25000   |    0.13884   0.41653  -0.41653    |
 |   171    0.12500   0.37500   0.12500   |    0.41653  -0.13884   0.41653    |
 |   172   -0.37500  -0.25000  -0.25000   |   -0.13884  -0.41653  -0.41653    |
 |   173    0.25000   0.00000  -0.12500   |   -0.41653   0.13884   0.41653    |
 |   174    0.00000  -0.12500   0.12500   |    0.00000   0.27769  -0.27769    |
 |   175    0.12500   0.00000  -0.12500   |   -0.27769   0.00000   0.27769    |
 |   176   -0.12500  -0.12500  -0.25000   |   -0.27769  -0.27769   0.00000    |
 |   177    0.12500   0.25000   0.12500   |    0.27769   0.00000   0.27769    |
 |   178    0.12500  -0.12500   0.00000   |   -0.27769   0.27769   0.00000    |
 |   179   -0.25000  -0.12500  -0.12500   |    0.00000  -0.27769  -0.27769    |
 |   180    0.12500   0.12500   0.25000   |    0.27769   0.27769   0.00000    |
 |   181    0.00000   0.12500  -0.12500   |    0.00000  -0.27769   0.27769    |
 |   182   -0.12500  -0.25000  -0.12500   |   -0.27769   0.00000  -0.27769    |
 |   183    0.25000   0.12500   0.12500   |    0.00000   0.27769   0.27769    |
 |   184   -0.12500   0.00000   0.12500   |    0.27769   0.00000  -0.27769    |
 |   185    0.00000   0.25000   0.25000   |    0.55537   0.00000   0.00000    |
 |   186    0.25000   0.00000   0.25000   |    0.00000   0.55537   0.00000    |
 |   187   -0.25000  -0.25000   0.00000   |    0.00000   0.00000  -0.55537    |
 |   188   -0.25000   0.00000  -0.25000   |    0.00000  -0.55537   0.00000    |
 |   189    0.00000  -0.25000  -0.25000   |   -0.55537   0.00000   0.00000    |
 |   190    0.00000   0.37500   0.25000   |    0.69421  -0.13884   0.13884    |
 |   191    0.25000   0.00000   0.37500   |    0.13884   0.69421  -0.13884    |
 |   192   -0.25000  -0.25000   0.12500   |    0.13884   0.13884  -0.69421    |
 |   193   -0.37500  -0.12500  -0.37500   |   -0.13884  -0.69421  -0.13884    |
 |   194    0.25000   0.37500   0.00000   |    0.13884  -0.13884   0.69421    |
 |   195    0.12500  -0.25000  -0.25000   |   -0.69421   0.13884   0.13884    |
 |   196   -0.37500  -0.37500  -0.12500   |   -0.13884  -0.13884  -0.69421    |
 |   197    0.00000   0.25000   0.37500   |    0.69421   0.13884  -0.13884    |
 |   198   -0.25000   0.12500  -0.25000   |    0.13884  -0.69421   0.13884    |
 |   199   -0.12500  -0.37500  -0.37500   |   -0.69421  -0.13884  -0.13884    |
 |   200    0.37500   0.00000   0.25000   |   -0.13884   0.69421   0.13884    |
 |   201   -0.37500  -0.25000   0.00000   |    0.13884  -0.13884  -0.69421    |
 |   202    0.00000  -0.37500  -0.25000   |   -0.69421   0.13884  -0.13884    |
 |   203   -0.25000   0.00000  -0.37500   |   -0.13884  -0.69421   0.13884    |
 |   204    0.25000   0.25000  -0.12500   |   -0.13884  -0.13884   0.69421    |
 |   205    0.37500   0.12500   0.37500   |    0.13884   0.69421   0.13884    |
 |   206   -0.25000  -0.37500   0.00000   |   -0.13884   0.13884  -0.69421    |
 |   207   -0.12500   0.25000   0.25000   |    0.69421  -0.13884  -0.13884    |
 |   208    0.37500   0.37500   0.12500   |    0.13884   0.13884   0.69421    |
 |   209    0.00000  -0.25000  -0.37500   |   -0.69421  -0.13884   0.13884    |
 |   210    0.25000  -0.12500   0.25000   |   -0.13884   0.69421  -0.13884    |
 |   211    0.12500   0.37500   0.37500   |    0.69421   0.13884   0.13884    |
 |   212   -0.37500   0.00000  -0.25000   |    0.13884  -0.69421  -0.13884    |
 |   213    0.00000   0.50000   0.25000   |    0.83306  -0.27769   0.27769    |
 |   214    0.25000   0.00000   0.50000   |    0.27769   0.83306  -0.27769    |
 |   215   -0.25000  -0.25000   0.25000   |    0.27769   0.27769  -0.83306    |
 |   216   -0.50000  -0.25000  -0.50000   |   -0.27769  -0.83306  -0.27769    |
 |   217    0.25000   0.50000   0.00000   |    0.27769  -0.27769   0.83306    |
 |   218    0.25000  -0.25000  -0.25000   |   -0.83306   0.27769   0.27769    |
 |   219   -0.50000  -0.50000  -0.25000   |   -0.27769  -0.27769  -0.83306    |
 |   220    0.00000   0.25000   0.50000   |    0.83306   0.27769  -0.27769    |
 |   221   -0.25000   0.25000  -0.25000   |    0.27769  -0.83306   0.27769    |
 |   222   -0.25000  -0.50000  -0.50000   |   -0.83306  -0.27769  -0.27769    |
 |   223    0.50000   0.00000   0.25000   |   -0.27769   0.83306   0.27769    |
 |   224   -0.50000  -0.25000   0.00000   |    0.27769  -0.27769  -0.83306    |
 |   225    0.00000  -0.50000  -0.25000   |   -0.83306   0.27769  -0.27769    |
 |   226   -0.25000   0.00000  -0.50000   |   -0.27769  -0.83306   0.27769    |
 |   227    0.25000   0.25000  -0.25000   |   -0.27769  -0.27769   0.83306    |
 |   228    0.50000   0.25000   0.50000   |    0.27769   0.83306   0.27769    |
 |   229   -0.25000  -0.50000   0.00000   |   -0.27769   0.27769  -0.83306    |
 |   230   -0.25000   0.25000   0.25000   |    0.83306  -0.27769  -0.27769    |
 |   231    0.50000   0.50000   0.25000   |    0.27769   0.27769   0.83306    |
 |   232    0.00000  -0.25000  -0.50000   |   -0.83306  -0.27769   0.27769    |
 |   233    0.25000  -0.25000   0.25000   |   -0.27769   0.83306  -0.27769    |
 |   234    0.25000   0.50000   0.50000   |    0.83306   0.27769   0.27769    |
 |   235   -0.50000   0.00000  -0.25000   |    0.27769  -0.83306  -0.27769    |
 |   236    0.00000  -0.37500   0.25000   |   -0.13884   0.69421  -0.69421    |
 |   237    0.25000   0.00000  -0.37500   |   -0.69421  -0.13884   0.69421    |
 |   238   -0.25000  -0.25000  -0.62500   |   -0.69421  -0.69421   0.13884    |
 |   239    0.37500   0.62500   0.37500   |    0.69421   0.13884   0.69421    |
 |   240    0.25000  -0.37500   0.00000   |   -0.69421   0.69421  -0.13884    |
 |   241   -0.62500  -0.25000  -0.25000   |    0.13884  -0.69421  -0.69421    |
 |   242    0.37500   0.37500   0.62500   |    0.69421   0.69421   0.13884    |
 |   243    0.00000   0.25000  -0.37500   |   -0.13884  -0.69421   0.69421    |
 |   244   -0.25000  -0.62500  -0.25000   |   -0.69421   0.13884  -0.69421    |
 |   245    0.62500   0.37500   0.37500   |    0.13884   0.69421   0.69421    |
 |   246   -0.37500   0.00000   0.25000   |    0.69421  -0.13884  -0.69421    |
 |   247    0.37500  -0.25000   0.00000   |   -0.69421   0.69421   0.13884    |
 |   248    0.00000   0.37500  -0.25000   |    0.13884  -0.69421   0.69421    |
 |   249   -0.25000   0.00000   0.37500   |    0.69421   0.13884  -0.69421    |
 |   250    0.25000   0.25000   0.62500   |    0.69421   0.69421  -0.13884    |
 |   251   -0.37500  -0.62500  -0.37500   |   -0.69421  -0.13884  -0.69421    |
 |   252   -0.25000   0.37500   0.00000   |    0.69421  -0.69421   0.13884    |
 |   253    0.62500   0.25000   0.25000   |   -0.13884   0.69421   0.69421    |
 |   254   -0.37500  -0.37500  -0.62500   |   -0.69421  -0.69421  -0.13884    |
 |   255    0.00000  -0.25000   0.37500   |    0.13884   0.69421  -0.69421    |
 |   256    0.25000   0.62500   0.25000   |    0.69421  -0.13884   0.69421    |
 |   257   -0.62500  -0.37500  -0.37500   |   -0.13884  -0.69421  -0.69421    |
 |   258    0.37500   0.00000  -0.25000   |   -0.69421   0.13884   0.69421    |
 |   259    0.00000  -0.25000   0.25000   |    0.00000   0.55537  -0.55537    |
 |   260    0.25000   0.00000  -0.25000   |   -0.55537   0.00000   0.55537    |
 |   261   -0.25000  -0.25000  -0.50000   |   -0.55537  -0.55537   0.00000    |
 |   262    0.25000   0.50000   0.25000   |    0.55537   0.00000   0.55537    |
 |   263    0.25000  -0.25000   0.00000   |   -0.55537   0.55537   0.00000    |
 |   264   -0.50000  -0.25000  -0.25000   |    0.00000  -0.55537  -0.55537    |
 |   265    0.25000   0.25000   0.50000   |    0.55537   0.55537   0.00000    |
 |   266    0.00000   0.25000  -0.25000   |    0.00000  -0.55537   0.55537    |
 |   267   -0.25000  -0.50000  -0.25000   |   -0.55537   0.00000  -0.55537    |
 |   268    0.50000   0.25000   0.25000   |    0.00000   0.55537   0.55537    |
 |   269   -0.25000   0.00000   0.25000   |    0.55537   0.00000  -0.55537    |
 |   270    0.00000   0.37500   0.37500   |    0.83306   0.00000   0.00000    |
 |   271    0.37500   0.00000   0.37500   |    0.00000   0.83306   0.00000    |
 |   272   -0.37500  -0.37500   0.00000   |    0.00000   0.00000  -0.83306    |
 |   273   -0.37500   0.00000  -0.37500   |    0.00000  -0.83306   0.00000    |
 |   274    0.00000  -0.37500  -0.37500   |   -0.83306   0.00000   0.00000    |
 |   275    0.00000   0.50000   0.37500   |    0.97190  -0.13884   0.13884    |
 |   276    0.37500   0.00000   0.50000   |    0.13884   0.97190  -0.13884    |
 |   277   -0.37500  -0.37500   0.12500   |    0.13884   0.13884  -0.97190    |
 |   278   -0.50000  -0.12500  -0.50000   |   -0.13884  -0.97190  -0.13884    |
 |   279    0.37500   0.50000   0.00000   |    0.13884  -0.13884   0.97190    |
 |   280    0.12500  -0.37500  -0.37500   |   -0.97190   0.13884   0.13884    |
 |   281   -0.50000  -0.50000  -0.12500   |   -0.13884  -0.13884  -0.97190    |
 |   282    0.00000   0.37500   0.50000   |    0.97190   0.13884  -0.13884    |
 |   283   -0.37500   0.12500  -0.37500   |    0.13884  -0.97190   0.13884    |
 |   284   -0.12500  -0.50000  -0.50000   |   -0.97190  -0.13884  -0.13884    |
 |   285    0.50000   0.00000   0.37500   |   -0.13884   0.97190   0.13884    |
 |   286   -0.50000  -0.37500   0.00000   |    0.13884  -0.13884  -0.97190    |
 |   287    0.00000  -0.50000  -0.37500   |   -0.97190   0.13884  -0.13884    |
 |   288   -0.37500   0.00000  -0.50000   |   -0.13884  -0.97190   0.13884    |
 |   289    0.37500   0.37500  -0.12500   |   -0.13884  -0.13884   0.97190    |
 |   290    0.50000   0.12500   0.50000   |    0.13884   0.97190   0.13884    |
 |   291   -0.37500  -0.50000   0.00000   |   -0.13884   0.13884  -0.97190    |
 |   292   -0.12500   0.37500   0.37500   |    0.97190  -0.13884  -0.13884    |
 |   293    0.50000   0.50000   0.12500   |    0.13884   0.13884   0.97190    |
 |   294    0.00000  -0.37500  -0.50000   |   -0.97190  -0.13884   0.13884    |
 |   295    0.37500  -0.12500   0.37500   |   -0.13884   0.97190  -0.13884    |
 |   296    0.12500   0.50000   0.50000   |    0.97190   0.13884   0.13884    |
 |   297   -0.50000   0.00000  -0.37500   |    0.13884  -0.97190  -0.13884    |
 |   298    0.00000  -0.37500   0.37500   |    0.00000   0.83306  -0.83306    |
 |   299    0.37500   0.00000  -0.37500   |   -0.83306   0.00000   0.83306    |
 |   300   -0.37500  -0.37500  -0.75000   |   -0.83306  -0.83306   0.00000    |
 |   301    0.37500   0.75000   0.37500   |    0.83306   0.00000   0.83306    |
 |   302    0.37500  -0.37500   0.00000   |   -0.83306   0.83306   0.00000    |
 |   303   -0.75000  -0.37500  -0.37500   |    0.00000  -0.83306  -0.83306    |
 |   304    0.37500   0.37500   0.75000   |    0.83306   0.83306   0.00000    |
 |   305    0.00000   0.37500  -0.37500   |    0.00000  -0.83306   0.83306    |
 |   306   -0.37500  -0.75000  -0.37500   |   -0.83306   0.00000  -0.83306    |
 |   307    0.75000   0.37500   0.37500   |    0.00000   0.83306   0.83306    |
 |   308   -0.37500   0.00000   0.37500   |    0.83306   0.00000  -0.83306    |
 |   309    0.00000   0.50000   0.50000   |    1.11074   0.00000   0.00000    |
 |   310    0.50000   0.00000   0.50000   |    0.00000   1.11074   0.00000    |
 |   311    0.12500   0.37500   0.25000   |    0.55537   0.00000   0.27769    |
 |   312    0.25000   0.12500   0.37500   |    0.27769   0.55537   0.00000    |
 |   313   -0.25000  -0.12500   0.12500   |    0.27769   0.00000  -0.55537    |
 |   314   -0.37500  -0.12500  -0.25000   |   -0.00000  -0.55537  -0.27769    |
 |   315   -0.12500   0.25000   0.12500   |    0.55537  -0.27769   0.00000    |
 |   316    0.12500   0.25000  -0.12500   |    0.00000  -0.27769   0.55537    |
 |   317    0.12500  -0.12500  -0.25000   |   -0.55537   0.00000   0.27769    |
 |   318   -0.25000  -0.12500  -0.37500   |   -0.27769  -0.55537   0.00000    |
 |   319   -0.25000  -0.37500  -0.12500   |   -0.27769  -0.00000  -0.55537    |
 |   320    0.12500  -0.12500   0.25000   |    0.00000   0.55537  -0.27769    |
 |   321    0.12500  -0.25000  -0.12500   |   -0.55537   0.27769   0.00000    |
 |   322   -0.12500   0.12500   0.25000   |    0.55537   0.00000  -0.27769    |
 |   323   -0.25000   0.12500  -0.12500   |    0.27769  -0.55537   0.00000    |
 |   324   -0.37500  -0.25000  -0.12500   |   -0.00000  -0.27769  -0.55537    |
 |   325   -0.12500  -0.25000  -0.37500   |   -0.55537  -0.27769   0.00000    |
 |   326    0.25000   0.12500  -0.12500   |   -0.27769   0.00000   0.55537    |
 |   327   -0.12500   0.12500  -0.25000   |    0.00000  -0.55537   0.27769    |
 |   328    0.25000  -0.12500   0.12500   |   -0.27769   0.55537   0.00000    |
 |   329   -0.12500  -0.25000   0.12500   |    0.00000   0.27769  -0.55537    |
 |   330   -0.12500  -0.37500  -0.25000   |   -0.55537  -0.00000  -0.27769    |
 |   331    0.37500   0.12500   0.25000   |    0.00000   0.55537   0.27769    |
 |   332    0.25000   0.37500   0.12500   |    0.27769   0.00000   0.55537    |
 |   333    0.12500   0.25000   0.37500   |    0.55537   0.27769   0.00000    |
 |   334    0.12500   0.50000   0.25000   |    0.69421  -0.13884   0.41653    |
 |   335    0.25000   0.12500   0.50000   |    0.41653   0.69421  -0.13884    |
 |   336   -0.25000  -0.12500   0.25000   |    0.41653   0.13884  -0.69421    |
 |   337   -0.50000  -0.25000  -0.37500   |   -0.13884  -0.69421  -0.41653    |
 |   338   -0.12500   0.37500   0.12500   |    0.69421  -0.41653   0.13884    |
 |   339    0.12500   0.37500  -0.12500   |    0.13884  -0.41653   0.69421    |
 |   340    0.25000  -0.12500  -0.25000   |   -0.69421   0.13884   0.41653    |
 |   341   -0.37500  -0.25000  -0.50000   |   -0.41653  -0.69421  -0.13884    |
 |   342   -0.37500  -0.50000  -0.25000   |   -0.41653  -0.13884  -0.69421    |
 |   343    0.12500  -0.12500   0.37500   |    0.13884   0.69421  -0.41653    |
 |   344    0.25000  -0.25000  -0.12500   |   -0.69421   0.41653   0.13884    |
 |   345   -0.12500   0.12500   0.37500   |    0.69421   0.13884  -0.41653    |
 |   346   -0.25000   0.25000  -0.12500   |    0.41653  -0.69421   0.13884    |
 |   347   -0.50000  -0.37500  -0.25000   |   -0.13884  -0.41653  -0.69421    |
 |   348   -0.25000  -0.37500  -0.50000   |   -0.69421  -0.41653  -0.13884    |
 |   349    0.37500   0.12500  -0.12500   |   -0.41653   0.13884   0.69421    |
 |   350   -0.12500   0.25000  -0.25000   |    0.13884  -0.69421   0.41653    |
 |   351    0.37500  -0.12500   0.12500   |   -0.41653   0.69421   0.13884    |
 |   352   -0.12500  -0.25000   0.25000   |    0.13884   0.41653  -0.69421    |
 |   353   -0.25000  -0.50000  -0.37500   |   -0.69421  -0.13884  -0.41653    |
 |   354    0.50000   0.12500   0.25000   |   -0.13884   0.69421   0.41653    |
 |   355    0.25000   0.50000   0.12500   |    0.41653  -0.13884   0.69421    |
 |   356    0.12500   0.25000   0.50000   |    0.69421   0.41653  -0.13884    |
 |   357   -0.50000  -0.25000  -0.12500   |    0.13884  -0.41653  -0.69421    |
 |   358   -0.12500  -0.50000  -0.25000   |   -0.69421   0.13884  -0.41653    |
 |   359   -0.25000  -0.12500  -0.50000   |   -0.41653  -0.69421   0.13884    |
 |   360    0.25000   0.12500  -0.25000   |   -0.41653  -0.13884   0.69421    |
 |   361    0.50000   0.25000   0.37500   |    0.13884   0.69421   0.41653    |
 |   362    0.12500  -0.37500  -0.12500   |   -0.69421   0.41653  -0.13884    |
 |   363   -0.12500  -0.37500   0.12500   |   -0.13884   0.41653  -0.69421    |
 |   364   -0.25000   0.12500   0.25000   |    0.69421  -0.13884  -0.41653    |
 |   365    0.37500   0.25000   0.50000   |    0.41653   0.69421   0.13884    |
 |   366    0.37500   0.50000   0.25000   |    0.41653   0.13884   0.69421    |
 |   367   -0.12500   0.12500  -0.37500   |   -0.13884  -0.69421   0.41653    |
 |   368   -0.25000   0.25000   0.12500   |    0.69421  -0.41653  -0.13884    |
 |   369    0.12500  -0.12500  -0.37500   |   -0.69421  -0.13884   0.41653    |
 |   370    0.25000  -0.25000   0.12500   |   -0.41653   0.69421  -0.13884    |
 |   371    0.50000   0.37500   0.25000   |    0.13884   0.41653   0.69421    |
 |   372    0.25000   0.37500   0.50000   |    0.69421   0.41653   0.13884    |
 |   373   -0.37500  -0.12500   0.12500   |    0.41653  -0.13884  -0.69421    |
 |   374    0.12500  -0.25000   0.25000   |   -0.13884   0.69421  -0.41653    |
 |   375   -0.37500   0.12500  -0.12500   |    0.41653  -0.69421  -0.13884    |
 |   376    0.12500   0.25000  -0.25000   |   -0.13884  -0.41653   0.69421    |
 |   377    0.25000   0.50000   0.37500   |    0.69421   0.13884   0.41653    |
 |   378   -0.50000  -0.12500  -0.25000   |    0.13884  -0.69421  -0.41653    |
 |   379   -0.25000  -0.50000  -0.12500   |   -0.41653   0.13884  -0.69421    |
 |   380   -0.12500  -0.25000  -0.50000   |   -0.69421  -0.41653   0.13884    |
 |   381    0.12500  -0.37500   0.25000   |   -0.27769   0.83306  -0.55537    |
 |   382    0.25000   0.12500  -0.37500   |   -0.55537  -0.27769   0.83306    |
 |   383   -0.25000  -0.12500  -0.62500   |   -0.55537  -0.83306   0.27769    |
 |   384    0.37500   0.62500   0.50000   |    0.83306   0.27769   0.55537    |
 |   385   -0.12500  -0.50000   0.12500   |   -0.27769   0.55537  -0.83306    |
 |   386    0.12500  -0.50000  -0.12500   |   -0.83306   0.55537  -0.27769    |
 |   387   -0.62500  -0.12500  -0.25000   |    0.27769  -0.83306  -0.55537    |
 |   388    0.50000   0.62500   0.37500   |    0.55537   0.27769   0.83306    |
 |   389    0.50000   0.37500   0.62500   |    0.55537   0.83306   0.27769    |
 |   390    0.12500  -0.12500  -0.50000   |   -0.83306  -0.27769   0.55537    |
 |   391   -0.62500  -0.25000  -0.12500   |    0.27769  -0.55537  -0.83306    |
 |   392   -0.12500   0.12500  -0.50000   |   -0.27769  -0.83306   0.55537    |
 |   393   -0.25000  -0.62500  -0.12500   |   -0.55537   0.27769  -0.83306    |
 |   394    0.37500   0.50000   0.62500   |    0.83306   0.55537   0.27769    |
 |   395    0.62500   0.50000   0.37500   |    0.27769   0.55537   0.83306    |
 |   396   -0.50000   0.12500  -0.12500   |    0.55537  -0.83306  -0.27769    |
 |   397   -0.12500  -0.62500  -0.25000   |   -0.83306   0.27769  -0.55537    |
 |   398   -0.50000  -0.12500   0.12500   |    0.55537  -0.27769  -0.83306    |
 |   399   -0.12500  -0.25000  -0.62500   |   -0.83306  -0.55537   0.27769    |
 |   400    0.62500   0.37500   0.50000   |    0.27769   0.83306   0.55537    |
 |   401   -0.37500   0.12500   0.25000   |    0.83306  -0.27769  -0.55537    |
 |   402    0.25000  -0.37500   0.12500   |   -0.55537   0.83306  -0.27769    |
 |   403    0.12500   0.25000  -0.37500   |   -0.27769  -0.55537   0.83306    |
 |   404    0.12500   0.50000   0.37500   |    0.83306   0.00000   0.27769    |
 |   405    0.37500   0.12500   0.50000   |    0.27769   0.83306   0.00000    |
 |   406   -0.37500  -0.25000   0.12500   |    0.27769   0.00000  -0.83306    |
 |   407   -0.50000  -0.12500  -0.37500   |    0.00000  -0.83306  -0.27769    |
 |   408   -0.12500   0.37500   0.25000   |    0.83306  -0.27769  -0.00000    |
 |   409    0.25000   0.37500  -0.12500   |   -0.00000  -0.27769   0.83306    |
 |   410    0.12500  -0.25000  -0.37500   |   -0.83306   0.00000   0.27769    |
 |   411   -0.37500  -0.12500  -0.50000   |   -0.27769  -0.83306   0.00000    |
 |   412   -0.37500  -0.50000  -0.12500   |   -0.27769   0.00000  -0.83306    |
 |   413    0.25000  -0.12500   0.37500   |    0.00000   0.83306  -0.27769    |
 |   414    0.12500  -0.37500  -0.25000   |   -0.83306   0.27769   0.00000    |
 |   415   -0.12500   0.25000   0.37500   |    0.83306   0.00000  -0.27769    |
 |   416   -0.37500   0.12500  -0.25000   |    0.27769  -0.83306   0.00000    |
 |   417   -0.50000  -0.37500  -0.12500   |    0.00000  -0.27769  -0.83306    |
 |   418   -0.12500  -0.37500  -0.50000   |   -0.83306  -0.27769   0.00000    |
 |   419    0.37500   0.25000  -0.12500   |   -0.27769  -0.00000   0.83306    |
 |   420   -0.25000   0.12500  -0.37500   |    0.00000  -0.83306   0.27769    |
 |   421    0.37500  -0.12500   0.25000   |   -0.27769   0.83306  -0.00000    |
 |   422   -0.25000  -0.37500   0.12500   |    0.00000   0.27769  -0.83306    |
 |   423   -0.12500  -0.50000  -0.37500   |   -0.83306   0.00000  -0.27769    |
 |   424    0.50000   0.12500   0.37500   |    0.00000   0.83306   0.27769    |
 |   425    0.37500   0.50000   0.12500   |    0.27769  -0.00000   0.83306    |
 |   426    0.12500   0.37500   0.50000   |    0.83306   0.27769   0.00000    |
 |   427    0.12500  -0.37500   0.37500   |   -0.13884   0.97190  -0.69421    |
 |   428    0.37500   0.12500  -0.37500   |   -0.69421  -0.13884   0.97190    |
 |   429   -0.37500  -0.25000  -0.75000   |   -0.69421  -0.97190   0.13884    |
 |   430    0.37500   0.75000   0.50000   |    0.97190   0.13884   0.69421    |
 |   431   -0.12500  -0.50000   0.25000   |   -0.13884   0.69421  -0.97190    |
 |   432    0.25000  -0.50000  -0.12500   |   -0.97190   0.69421  -0.13884    |
 |   433   -0.75000  -0.25000  -0.37500   |    0.13884  -0.97190  -0.69421    |
 |   434    0.50000   0.75000   0.37500   |    0.69421   0.13884   0.97190    |
 |   435    0.50000   0.37500   0.75000   |    0.69421   0.97190   0.13884    |
 |   436    0.25000  -0.12500  -0.50000   |   -0.97190  -0.13884   0.69421    |
 |   437   -0.75000  -0.37500  -0.25000   |    0.13884  -0.69421  -0.97190    |
 |   438   -0.12500   0.25000  -0.50000   |   -0.13884  -0.97190   0.69421    |
 |   439   -0.37500  -0.75000  -0.25000   |   -0.69421   0.13884  -0.97190    |
 |   440    0.37500   0.50000   0.75000   |    0.97190   0.69421   0.13884    |
 |   441    0.75000   0.50000   0.37500   |    0.13884   0.69421   0.97190    |
 |   442   -0.50000   0.25000  -0.12500   |    0.69421  -0.97190  -0.13884    |
 |   443   -0.25000  -0.75000  -0.37500   |   -0.97190   0.13884  -0.69421    |
 |   444   -0.50000  -0.12500   0.25000   |    0.69421  -0.13884  -0.97190    |
 |   445   -0.25000  -0.37500  -0.75000   |   -0.97190  -0.69421   0.13884    |
 |   446    0.75000   0.37500   0.50000   |    0.13884   0.97190   0.69421    |
 |   447   -0.37500   0.12500   0.37500   |    0.97190  -0.13884  -0.69421    |
 |   448    0.37500  -0.37500   0.12500   |   -0.69421   0.97190  -0.13884    |
 |   449    0.12500   0.37500  -0.37500   |   -0.13884  -0.69421   0.97190    |
 |   450    0.37500  -0.37500  -0.12500   |   -0.97190   0.69421   0.13884    |
 |   451   -0.12500   0.37500  -0.37500   |    0.13884  -0.97190   0.69421    |
 |   452   -0.37500  -0.12500   0.37500   |    0.69421   0.13884  -0.97190    |
 |   453    0.37500   0.25000   0.75000   |    0.69421   0.97190  -0.13884    |
 |   454   -0.37500  -0.75000  -0.50000   |   -0.97190  -0.13884  -0.69421    |
 |   455    0.12500   0.50000  -0.25000   |    0.13884  -0.69421   0.97190    |
 |   456   -0.25000   0.50000   0.12500   |    0.97190  -0.69421   0.13884    |
 |   457    0.75000   0.25000   0.37500   |   -0.13884   0.97190   0.69421    |
 |   458   -0.50000  -0.75000  -0.37500   |   -0.69421  -0.13884  -0.97190    |
 |   459   -0.50000  -0.37500  -0.75000   |   -0.69421  -0.97190  -0.13884    |
 |   460   -0.25000   0.12500   0.50000   |    0.97190   0.13884  -0.69421    |
 |   461    0.75000   0.37500   0.25000   |   -0.13884   0.69421   0.97190    |
 |   462    0.12500  -0.25000   0.50000   |    0.13884   0.97190  -0.69421    |
 |   463    0.37500   0.75000   0.25000   |    0.69421  -0.13884   0.97190    |
 |   464   -0.37500  -0.50000  -0.75000   |   -0.97190  -0.69421  -0.13884    |
 |   465   -0.75000  -0.50000  -0.37500   |   -0.13884  -0.69421  -0.97190    |
 |   466    0.50000  -0.25000   0.12500   |   -0.69421   0.97190   0.13884    |
 |   467    0.25000   0.75000   0.37500   |    0.97190  -0.13884   0.69421    |
 |   468    0.50000   0.12500  -0.25000   |   -0.69421   0.13884   0.97190    |
 |   469    0.25000   0.37500   0.75000   |    0.97190   0.69421  -0.13884    |
 |   470   -0.75000  -0.37500  -0.50000   |   -0.13884  -0.97190  -0.69421    |
 |   471    0.37500  -0.12500  -0.37500   |   -0.97190   0.13884   0.69421    |
 |   472   -0.37500   0.37500  -0.12500   |    0.69421  -0.97190   0.13884    |
 |   473   -0.12500  -0.37500   0.37500   |    0.13884   0.69421  -0.97190    |
 |   474    0.12500  -0.25000   0.37500   |    0.00000   0.83306  -0.55537    |
 |   475    0.37500   0.12500  -0.25000   |   -0.55537  -0.00000   0.83306    |
 |   476   -0.37500  -0.25000  -0.62500   |   -0.55537  -0.83306   0.00000    |
 |   477    0.25000   0.62500   0.37500   |    0.83306  -0.00000   0.55537    |
 |   478   -0.12500  -0.37500   0.25000   |    0.00000   0.55537  -0.83306    |
 |   479    0.25000  -0.37500  -0.12500   |   -0.83306   0.55537   0.00000    |
 |   480   -0.62500  -0.25000  -0.37500   |    0.00000  -0.83306  -0.55537    |
 |   481    0.37500   0.62500   0.25000   |    0.55537  -0.00000   0.83306    |
 |   482    0.37500   0.25000   0.62500   |    0.55537   0.83306  -0.00000    |
 |   483    0.25000  -0.12500  -0.37500   |   -0.83306   0.00000   0.55537    |
 |   484   -0.62500  -0.37500  -0.25000   |    0.00000  -0.55537  -0.83306    |
 |   485   -0.12500   0.25000  -0.37500   |    0.00000  -0.83306   0.55537    |
 |   486   -0.37500  -0.62500  -0.25000   |   -0.55537   0.00000  -0.83306    |
 |   487    0.25000   0.37500   0.62500   |    0.83306   0.55537  -0.00000    |
 |   488    0.62500   0.37500   0.25000   |   -0.00000   0.55537   0.83306    |
 |   489   -0.37500   0.25000  -0.12500   |    0.55537  -0.83306   0.00000    |
 |   490   -0.25000  -0.62500  -0.37500   |   -0.83306   0.00000  -0.55537    |
 |   491   -0.37500  -0.12500   0.25000   |    0.55537   0.00000  -0.83306    |
 |   492   -0.25000  -0.37500  -0.62500   |   -0.83306  -0.55537   0.00000    |
 |   493    0.62500   0.25000   0.37500   |   -0.00000   0.83306   0.55537    |
 |   494   -0.25000   0.12500   0.37500   |    0.83306   0.00000  -0.55537    |
 |   495    0.37500  -0.25000   0.12500   |   -0.55537   0.83306  -0.00000    |
 |   496    0.12500   0.37500  -0.25000   |   -0.00000  -0.55537   0.83306    |
 |   497    0.12500  -0.37500   0.50000   |    0.00000   1.11074  -0.83306    |
 |   498    0.50000   0.12500  -0.37500   |   -0.83306   0.00000   1.11074    |
 |   499   -0.50000  -0.37500  -0.87500   |   -0.83306  -1.11074   0.00000    |
 |   500    0.37500   0.87500   0.50000   |    1.11074   0.00000   0.83306    |
 |   501   -0.12500  -0.50000   0.37500   |    0.00000   0.83306  -1.11074    |
 |   502    0.37500  -0.50000  -0.12500   |   -1.11074   0.83306  -0.00000    |
 |   503    0.50000   0.87500   0.37500   |    0.83306   0.00000   1.11074    |
 |   504    0.50000   0.37500   0.87500   |    0.83306   1.11074   0.00000    |
 |   505   -0.87500  -0.50000  -0.37500   |    0.00000  -0.83306  -1.11074    |
 |   506   -0.12500   0.37500  -0.50000   |    0.00000  -1.11074   0.83306    |
 |   507   -0.37500  -0.87500  -0.50000   |   -1.11074   0.00000  -0.83306    |
 |   508    0.25000  -0.25000   0.50000   |    0.00000   1.11074  -0.55537    |
 |   509    0.50000   0.25000  -0.25000   |   -0.55537   0.00000   1.11074    |
 |   510   -0.50000  -0.25000  -0.75000   |   -0.55537  -1.11074   0.00000    |
 |   511    0.25000  -0.50000  -0.25000   |   -1.11074   0.55537   0.00000    |
 |   512   -0.25000   0.25000  -0.50000   |    0.00000  -1.11074   0.55537    |
 *----------------------------------------------------------------------------*
  
  
 *---------------------------------- MAIN ------------------------------------*
 |  Number of Wannier Functions               :                14             |
 |  Number of input Bloch states              :                20             |
 |  Output verbosity (1=low, 5=high)          :                 2             |
 |  Timing Level (1=low, 5=high)              :                 1             |
 |  Optimisation (0=memory, 3=speed)          :                 3             |
 |  Length Unit                               :               Ang             |
 |  Post-processing setup (write *.nnkp)      :                 F             |
 |  Using Gamma-only branch of algorithms     :                 F             |
 *----------------------------------------------------------------------------*
 *------------------------------- WANNIERISE ---------------------------------*
 |  Total number of iterations                :                 0             |
 |  Number of CG steps before reset           :                 5             |
 |  Trial step length for line search         :             2.000             |
 |  Convergence tolerence                     :         0.100E-09             |
 |  Convergence window                        :                -1             |
 |  Iterations between writing output         :                 1             |
 |  Iterations between backing up to disk     :               100             |
 |  Write r^2_nm to file                      :                 F             |
 |  Write xyz WF centres to file              :                 F             |
 |  Write on-site energies <0n|H|0n> to file  :                 F             |
 |  Use guiding centre to control phases      :                 F             |
 |  Use phases for initial projections        :                 F             |
 *----------------------------------------------------------------------------*
 *------------------------------- DISENTANGLE --------------------------------*
 |  Using band disentanglement                :                 T             |
 |  Total number of iterations                :              1000             |
 |  Mixing ratio                              :             0.500             |
 |  Convergence tolerence                     :         1.000E-10             |
 |  Convergence window                        :                 3             |
 *----------------------------------------------------------------------------*
 *-------------------------------- PLOTTING ----------------------------------*
 |  Plotting interpolated bandstructure       :                 T             |
 |   Number of K-path sections                :                 2             |
 |   Divisions along first K-path section     :               100             |
 |   Output format                            :           gnuplot             |
 |   Output mode                              :               s-k             |
 *----------------------------------------------------------------------------*
 |   K-space path sections:                                                   |
 |    From:  K    0.500  0.000  0.000     To:  G    0.000  0.000  0.000       |
 |    From:  G    0.000  0.000  0.000     To:  Y    0.000  0.500  0.500       |
 *----------------------------------------------------------------------------*
 |  Plotting Hamiltonian in WF basis          :                 T             |
 *----------------------------------------------------------------------------*
 Time to read parameters        0.064 (sec)

 *---------------------------------- K-MESH ----------------------------------*
 +----------------------------------------------------------------------------+
 |                    Distance to Nearest-Neighbour Shells                    |
 |                    ------------------------------------                    |
 |          Shell             Distance (Ang^-1)          Multiplicity         |
 |          -----             -----------------          ------------         |
 |             1                   0.240483                      8            |
 |             2                   0.277685                      6            |
 |             3                   0.392706                     12            |
 |             4                   0.460489                     24            |
 |             5                   0.480965                      8            |
 |             6                   0.555371                      6            |
 |             7                   0.605201                     24            |
 |             8                   0.620923                     24            |
 |             9                   0.680187                     24            |
 |            10                   0.721448                     32            |
 |            11                   0.785413                     12            |
 |            12                   0.821404                     48            |
 +----------------------------------------------------------------------------+
 | The b-vectors are chosen automatically                                     |
 | Shell:  1 w_b    6.4843167      (Ang^2)                                    |
 | The following shells are used:   1                                         |
 +----------------------------------------------------------------------------+
 |                        Shell   # Nearest-Neighbours                        |
 |                        -----   --------------------                        |
 |                          1               8                                 |
 +----------------------------------------------------------------------------+
 | Completeness relation is fully satisfied [Eq. (B1), PRB 56, 12847 (1997)]  |
 +----------------------------------------------------------------------------+
 |                  b_k Vectors (Ang^-1) and Weights (Ang^2)                  |
 |                  ----------------------------------------                  |
 |            No.         b_k(x)      b_k(y)      b_k(z)        w_b           |
 |            ---        --------------------------------     --------        |
 |             1        -0.138843    0.138843    0.138843     6.484317        |
 |             2         0.138843   -0.138843    0.138843     6.484317        |
 |             3         0.138843    0.138843   -0.138843     6.484317        |
 |             4        -0.138843   -0.138843   -0.138843     6.484317        |
 |             5         0.138843   -0.138843   -0.138843     6.484317        |
 |             6        -0.138843    0.138843   -0.138843     6.484317        |
 |             7        -0.138843   -0.138843    0.138843     6.484317        |
 |             8         0.138843    0.138843    0.138843     6.484317        |
 +----------------------------------------------------------------------------+
 |                           b_k Directions (Ang^-1)                          |
 |                           -----------------------                          |
 |            No.           x           y           z                         |
 |            ---        --------------------------------                     |
 |             1        -0.138843    0.138843    0.138843                     |
 |             2         0.138843   -0.138843    0.138843                     |
 |             3         0.138843    0.138843   -0.138843                     |
 |             4        -0.138843   -0.138843   -0.138843                     |
 +----------------------------------------------------------------------------+
  
 *============================================================================*
 |                              MEMORY ESTIMATE                               |
 |         Maximum RAM allocated during each phase of the calculation         |
 *============================================================================*
 |                        Disentanglement           43.61 Mb                  |
 |                            Wannierise:           35.30 Mb                  |
 |                                                                            |
 |   N.B. by setting optimisation=0 memory usage will be reduced to:          |
 |                        Disentanglement           37.63 Mb                  |
 |                            Wannierise:           23.05 Mb                  |
 |   However, this will result in more i/o and slow down the calculation      |
 *----------------------------------------------------------------------------*
  
 Starting a new Wannier90 calculation ...

 Time to get kmesh              0.312 (sec)

 Reading overlaps from wannier90.mmn    : File generated by VASP: Ge HF

 Reading projections from wannier90.amn : File generated by VASP: Ge HF

 Time to read overlaps          2.216 (sec)

 *------------------------------- DISENTANGLE --------------------------------*
 +----------------------------------------------------------------------------+
 |                              Energy  Windows                               |
 |                              ---------------                               |
 |                   Outer:  -15.00000  to   15.00000  (eV)                   |
 |                   Inner:   -6.00000  to    6.00000  (eV)                   |
 +----------------------------------------------------------------------------+
 |                        K-points with Frozen States                         |
 |                        ---------------------------                         |
 |     1     2     3     4     5     6     7     8     9    10    11    12    |
 |    13    14    15    16    17    18    19    20    21    22    23    24    |
 |    25    26    27    28    29    30    31    32    33    34    35    36    |
 |    37    38    39    40    41    42    43    44    45    46    47    48    |
 |    49    50    51    52    53    54    55    56    57    58    59    60    |
 |    61    62    63    64    65    66    67    68    69    70    71    72    |
 |    73    74    75    76    77    78    79    80    81    82    83    84    |
 |    85    86    87    88    89    90    91    92    93    94    95    96    |
 |    97    98    99   100   101   102   103   104   105   106   107   108    |
 |   109   110   111   112   113   114   115   116   117   118   119   120    |
 |   121   122   123   124   125   126   127   128   129   130   131   132    |
 |   133   134   135   136   137   138   139   140   141   142   143   144    |
 |   145   146   147   148   149   150   151   152   153   154   155   156    |
 |   157   158   159   160   161   162   163   164   165   166   167   168    |
 |   169   170   171   172   173   174   175   176   177   178   179   180    |
 |   181   182   183   184   185   186   187   188   189   190   191   192    |
 |   193   194   195   196   197   198   199   200   201   202   203   204    |
 |   205   206   207   208   209   210   211   212   213   214   215   216    |
 |   217   218   219   220   221   222   223   224   225   226   227   228    |
 |   229   230   231   232   233   234   235   236   237   238   239   240    |
 |   241   242   243   244   245   246   247   248   249   250   251   252    |
 |   253   254   255   256   257   258   259   260   261   262   263   264    |
 |   265   266   267   268   269   270   271   272   273   274   275   276    |
 |   277   278   279   280   281   282   283   284   285   286   287   288    |
 |   289   290   291   292   293   294   295   296   297   298   299   300    |
 |   301   302   303   304   305   306   307   308   309   310   311   312    |
 |   313   314   315   316   317   318   319   320   321   322   323   324    |
 |   325   326   327   328   329   330   331   332   333   334   335   336    |
 |   337   338   339   340   341   342   343   344   345   346   347   348    |
 |   349   350   351   352   353   354   355   356   357   358   359   360    |
 |   361   362   363   364   365   366   367   368   369   370   371   372    |
 |   373   374   375   376   377   378   379   380   381   382   383   384    |
 |   385   386   387   388   389   390   391   392   393   394   395   396    |
 |   397   398   399   400   401   402   403   404   405   406   407   408    |
 |   409   410   411   412   413   414   415   416   417   418   419   420    |
 |   421   422   423   424   425   426   427   428   429   430   431   432    |
 |   433   434   435   436   437   438   439   440   441   442   443   444    |
 |   445   446   447   448   449   450   451   452   453   454   455   456    |
 |   457   458   459   460   461   462   463   464   465   466   467   468    |
 |   469   470   471   472   473   474   475   476   477   478   479   480    |
 |   481   482   483   484   485   486   487   488   489   490   491   492    |
 |   493   494   495   496   497   498   499   500   501   502   503   504    |
 |   505   506   507   508   509   510   511   512                            |
 +----------------------------------------------------------------------------+
   Number of target bands to extract:   14
 +----------------------------------------------------------------------------+
 |                                  Windows                                   |
 |                                  -------                                   |
 |               K-point      Ndimwin     Ndimfroz    Nfirstwin               |
 |               ----------------------------------------------               |
 |                   1           20            8           1                  |
 |                   2           20            8           1                  |
 |                   3           20            8           1                  |
 |                   4           20            8           1                  |
 |                   5           18            8           1                  |
 |                   6           20            8           1                  |
 |                   7           20            8           1                  |
 |                   8           20            8           1                  |
 |                   9           18            8           1                  |
 |                  10           20            8           1                  |
 |                  11           20            8           1                  |
 |                  12           20            8           1                  |
 |                  13           20            8           1                  |
 |                  14           18            8           1                  |
 |                  15           18            8           1                  |
 |                  16           20            8           1                  |
 |                  17           20            6           1                  |
 |                  18           18           10           1                  |
 |                  19           16           10           1                  |
 |                  20           20            8           1                  |
 |                  21           16            8           1                  |
 |                  22           20            6           1                  |
 |                  23           20            6           1                  |
 |                  24           18            6           1                  |
 |                  25           20            8           1                  |
 |                  26           18            6           1                  |
 |                  27           20            6           1                  |
 |                  28           16            8           1                  |
 |                  29           16            4           1                  |
 |                  30           20            8           1                  |
 |                  31           20            8           1                  |
 |                  32           20            8           1                  |
 |                  33           20            8           1                  |
 |                  34           20            8           1                  |
 |                  35           20            8           1                  |
 |                  36           20            8           1                  |
 |                  37           20            8           1                  |
 |                  38           20            8           1                  |
 |                  39           20            8           1                  |
 |                  40           20            8           1                  |
 |                  41           20            8           1                  |
 |                  42           20            8           1                  |
 |                  43           20            8           1                  |
 |                  44           20            8           1                  |
 |                  45           20            8           1                  |
 |                  46           20            8           1                  |
 |                  47           20            8           1                  |
 |                  48           20            8           1                  |
 |                  49           20            8           1                  |
 |                  50           20            8           1                  |
 |                  51           18            8           1                  |
 |                  52           18            8           1                  |
 |                  53           18            8           1                  |
 |                  54           20            8           1                  |
 |                  55           20            8           1                  |
 |                  56           20            8           1                  |
 |                  57           20            8           1                  |
 |                  58           20            8           1                  |
 |                  59           20            8           1                  |
 |                  60           20            8           1                  |
 |                  61           20            8           1                  |
 |                  62           20            8           1                  |
 |                  63           20            8           1                  |
 |                  64           20            8           1                  |
 |                  65           20            8           1                  |
 |                  66           20            8           1                  |
 |                  67           20            8           1                  |
 |                  68           20            8           1                  |
 |                  69           20            8           1                  |
 |                  70           20            8           1                  |
 |                  71           20            8           1                  |
 |                  72           20            8           1                  |
 |                  73           20            8           1                  |
 |                  74           20            8           1                  |
 |                  75           20            8           1                  |
 |                  76           20            8           1                  |
 |                  77           20            8           1                  |
 |                  78           20            8           1                  |
 |                  79           20            8           1                  |
 |                  80           20            8           1                  |
 |                  81           20            8           1                  |
 |                  82           20            8           1                  |
 |                  83           20            8           1                  |
 |                  84           20            8           1                  |
 |                  85           20            8           1                  |
 |                  86           20            8           1                  |
 |                  87           20            8           1                  |
 |                  88           20            8           1                  |
 |                  89           20            8           1                  |
 |                  90           20            8           1                  |
 |                  91           20            8           1                  |
 |                  92           20            8           1                  |
 |                  93           20            8           1                  |
 |                  94           20            8           1                  |
 |                  95           20            8           1                  |
 |                  96           20            8           1                  |
 |                  97           20            8           1                  |
 |                  98           20            8           1                  |
 |                  99           20            8           1                  |
 |                 100           20            8           1                  |
 |                 101           20            8           1                  |
 |                 102           20            8           1                  |
 |                 103           20            8           1                  |
 |                 104           20            8           1                  |
 |                 105           18            8           1                  |
 |                 106           18            8           1                  |
 |                 107           18            8           1                  |
 |                 108           18            8           1                  |
 |                 109           18            8           1                  |
 |                 110           18            8           1                  |
 |                 111           18            8           1                  |
 |                 112           18            8           1                  |
 |                 113           18            8           1                  |
 |                 114           18            8           1                  |
 |                 115           18            8           1                  |
 |                 116           18            8           1                  |
 |                 117           18            8           1                  |
 |                 118           18            8           1                  |
 |                 119           18            8           1                  |
 |                 120           18            8           1                  |
 |                 121           18            8           1                  |
 |                 122           18            8           1                  |
 |                 123           18            8           1                  |
 |                 124           18            8           1                  |
 |                 125           18            8           1                  |
 |                 126           18            8           1                  |
 |                 127           18            8           1                  |
 |                 128           20            8           1                  |
 |                 129           20            8           1                  |
 |                 130           20            8           1                  |
 |                 131           20            8           1                  |
 |                 132           20            8           1                  |
 |                 133           20            8           1                  |
 |                 134           20            8           1                  |
 |                 135           20            8           1                  |
 |                 136           20            8           1                  |
 |                 137           20            8           1                  |
 |                 138           20            8           1                  |
 |                 139           20            8           1                  |
 |                 140           20            8           1                  |
 |                 141           20            8           1                  |
 |                 142           20            8           1                  |
 |                 143           20            8           1                  |
 |                 144           20            8           1                  |
 |                 145           20            8           1                  |
 |                 146           20            8           1                  |
 |                 147           20            8           1                  |
 |                 148           20            8           1                  |
 |                 149           20            8           1                  |
 |                 150           20            8           1                  |
 |                 151           20            8           1                  |
 |                 152           20            8           1                  |
 |                 153           20            8           1                  |
 |                 154           20            8           1                  |
 |                 155           20            8           1                  |
 |                 156           20            8           1                  |
 |                 157           20            8           1                  |
 |                 158           20            8           1                  |
 |                 159           20            8           1                  |
 |                 160           20            8           1                  |
 |                 161           20            8           1                  |
 |                 162           20            8           1                  |
 |                 163           20            8           1                  |
 |                 164           20            8           1                  |
 |                 165           20            8           1                  |
 |                 166           20            8           1                  |
 |                 167           20            8           1                  |
 |                 168           20            8           1                  |
 |                 169           20            8           1                  |
 |                 170           20            8           1                  |
 |                 171           20            8           1                  |
 |                 172           20            8           1                  |
 |                 173           20            8           1                  |
 |                 174           20            8           1                  |
 |                 175           20            8           1                  |
 |                 176           20            8           1                  |
 |                 177           20            8           1                  |
 |                 178           20            8           1                  |
 |                 179           20            8           1                  |
 |                 180           20            8           1                  |
 |                 181           20            8           1                  |
 |                 182           20            8           1                  |
 |                 183           20            8           1                  |
 |                 184           20            8           1                  |
 |                 185           20            8           1                  |
 |                 186           20            8           1                  |
 |                 187           20            8           1                  |
 |                 188           20            8           1                  |
 |                 189           20            8           1                  |
 |                 190           18            8           1                  |
 |                 191           18            8           1                  |
 |                 192           18            8           1                  |
 |                 193           18            8           1                  |
 |                 194           18            8           1                  |
 |                 195           18            8           1                  |
 |                 196           18            8           1                  |
 |                 197           18            8           1                  |
 |                 198           18            8           1                  |
 |                 199           18            8           1                  |
 |                 200           18            8           1                  |
 |                 201           18            8           1                  |
 |                 202           18            8           1                  |
 |                 203           18            8           1                  |
 |                 204           18            8           1                  |
 |                 205           18            8           1                  |
 |                 206           18            8           1                  |
 |                 207           18            8           1                  |
 |                 208           18            8           1                  |
 |                 209           18            8           1                  |
 |                 210           18            8           1                  |
[...]
     817      35.65829311      35.65832771      -9.702E-07    182.28    <-- DIS
     818      35.65827514      35.65830965      -9.679E-07    182.51    <-- DIS
     819      35.65825726      35.65829169      -9.655E-07    182.72    <-- DIS
     820      35.65823949      35.65827383      -9.632E-07    182.94    <-- DIS
     821      35.65822181      35.65825607      -9.608E-07    183.16    <-- DIS
     822      35.65820424      35.65823842      -9.585E-07    183.38    <-- DIS
     823      35.65818677      35.65822086      -9.562E-07    183.60    <-- DIS
     824      35.65816940      35.65820341      -9.539E-07    183.82    <-- DIS
     825      35.65815212      35.65818605      -9.516E-07    184.04    <-- DIS
     826      35.65813494      35.65816879      -9.492E-07    184.26    <-- DIS
     827      35.65811786      35.65815162      -9.470E-07    184.48    <-- DIS
     828      35.65810087      35.65813456      -9.447E-07    184.70    <-- DIS
     829      35.65808398      35.65811758      -9.424E-07    184.92    <-- DIS
     830      35.65806718      35.65810070      -9.401E-07    185.14    <-- DIS
     831      35.65805047      35.65808392      -9.378E-07    185.36    <-- DIS
     832      35.65803386      35.65806722      -9.355E-07    185.57    <-- DIS
     833      35.65801734      35.65805062      -9.333E-07    185.79    <-- DIS
     834      35.65800091      35.65803411      -9.310E-07    186.00    <-- DIS
     835      35.65798457      35.65801769      -9.288E-07    186.23    <-- DIS
     836      35.65796832      35.65800136      -9.265E-07    186.45    <-- DIS
     837      35.65795215      35.65798511      -9.243E-07    186.66    <-- DIS
     838      35.65793608      35.65796896      -9.221E-07    186.88    <-- DIS
     839      35.65792009      35.65795289      -9.198E-07    187.10    <-- DIS
     840      35.65790419      35.65793691      -9.176E-07    187.32    <-- DIS
     841      35.65788837      35.65792101      -9.154E-07    187.54    <-- DIS
     842      35.65787264      35.65790520      -9.132E-07    187.76    <-- DIS
     843      35.65785699      35.65788948      -9.110E-07    187.97    <-- DIS
     844      35.65784143      35.65787384      -9.088E-07    188.19    <-- DIS
     845      35.65782595      35.65785828      -9.066E-07    188.41    <-- DIS
     846      35.65781055      35.65784280      -9.045E-07    188.63    <-- DIS
     847      35.65779523      35.65782740      -9.023E-07    188.85    <-- DIS
     848      35.65777999      35.65781209      -9.001E-07    189.06    <-- DIS
     849      35.65776484      35.65779686      -8.980E-07    189.28    <-- DIS
     850      35.65774976      35.65778170      -8.958E-07    189.50    <-- DIS
     851      35.65773476      35.65776663      -8.937E-07    189.72    <-- DIS
     852      35.65771984      35.65775163      -8.915E-07    189.94    <-- DIS
     853      35.65770499      35.65773671      -8.894E-07    190.15    <-- DIS
     854      35.65769023      35.65772186      -8.873E-07    190.37    <-- DIS
     855      35.65767553      35.65770710      -8.852E-07    190.59    <-- DIS
     856      35.65766092      35.65769241      -8.831E-07    190.82    <-- DIS
     857      35.65764638      35.65767779      -8.810E-07    191.04    <-- DIS
     858      35.65763191      35.65766325      -8.789E-07    191.25    <-- DIS
     859      35.65761752      35.65764878      -8.768E-07    191.47    <-- DIS
     860      35.65760320      35.65763439      -8.747E-07    191.69    <-- DIS
     861      35.65758895      35.65762006      -8.726E-07    191.91    <-- DIS
     862      35.65757477      35.65760581      -8.706E-07    192.13    <-- DIS
     863      35.65756066      35.65759163      -8.685E-07    192.35    <-- DIS
     864      35.65754663      35.65757753      -8.665E-07    192.56    <-- DIS
     865      35.65753266      35.65756349      -8.644E-07    192.78    <-- DIS
     866      35.65751877      35.65754952      -8.624E-07    193.01    <-- DIS
     867      35.65750494      35.65753562      -8.604E-07    193.23    <-- DIS
     868      35.65749118      35.65752179      -8.583E-07    193.45    <-- DIS
     869      35.65747749      35.65750802      -8.563E-07    193.67    <-- DIS
     870      35.65746386      35.65749433      -8.543E-07    193.89    <-- DIS
     871      35.65745031      35.65748070      -8.523E-07    194.11    <-- DIS
     872      35.65743681      35.65746713      -8.503E-07    194.33    <-- DIS
     873      35.65742339      35.65745364      -8.483E-07    194.54    <-- DIS
     874      35.65741002      35.65744020      -8.464E-07    194.76    <-- DIS
     875      35.65739673      35.65742684      -8.444E-07    194.98    <-- DIS
     876      35.65738349      35.65741353      -8.424E-07    195.21    <-- DIS
     877      35.65737032      35.65740029      -8.405E-07    195.42    <-- DIS
     878      35.65735721      35.65738711      -8.385E-07    195.65    <-- DIS
     879      35.65734417      35.65737400      -8.366E-07    195.87    <-- DIS
     880      35.65733118      35.65736094      -8.347E-07    196.09    <-- DIS
     881      35.65731826      35.65734795      -8.327E-07    196.31    <-- DIS
     882      35.65730539      35.65733502      -8.308E-07    196.53    <-- DIS
     883      35.65729259      35.65732215      -8.289E-07    196.75    <-- DIS
     884      35.65727985      35.65730934      -8.270E-07    196.97    <-- DIS
     885      35.65726716      35.65729658      -8.251E-07    197.19    <-- DIS
     886      35.65725454      35.65728389      -8.232E-07    197.40    <-- DIS
     887      35.65724197      35.65727126      -8.214E-07    197.62    <-- DIS
     888      35.65722946      35.65725868      -8.195E-07    197.84    <-- DIS
     889      35.65721701      35.65724616      -8.176E-07    198.06    <-- DIS
     890      35.65720461      35.65723370      -8.158E-07    198.29    <-- DIS
     891      35.65719227      35.65722129      -8.139E-07    198.51    <-- DIS
     892      35.65717998      35.65720894      -8.121E-07    198.73    <-- DIS
     893      35.65716775      35.65719664      -8.102E-07    198.95    <-- DIS
     894      35.65715558      35.65718440      -8.084E-07    199.17    <-- DIS
     895      35.65714346      35.65717222      -8.066E-07    199.39    <-- DIS
     896      35.65713139      35.65716009      -8.048E-07    199.61    <-- DIS
     897      35.65711938      35.65714801      -8.030E-07    199.83    <-- DIS
     898      35.65710742      35.65713599      -8.012E-07    200.05    <-- DIS
     899      35.65709551      35.65712401      -7.994E-07    200.27    <-- DIS
     900      35.65708365      35.65711210      -7.976E-07    200.49    <-- DIS
     901      35.65707185      35.65710023      -7.958E-07    200.71    <-- DIS
     902      35.65706010      35.65708841      -7.941E-07    200.93    <-- DIS
     903      35.65704840      35.65707665      -7.923E-07    201.15    <-- DIS
     904      35.65703674      35.65706493      -7.906E-07    201.37    <-- DIS
     905      35.65702514      35.65705327      -7.888E-07    201.59    <-- DIS
     906      35.65701359      35.65704165      -7.871E-07    201.81    <-- DIS
     907      35.65700209      35.65703009      -7.854E-07    202.03    <-- DIS
     908      35.65699063      35.65701857      -7.836E-07    202.25    <-- DIS
     909      35.65697923      35.65700711      -7.819E-07    202.47    <-- DIS
     910      35.65696787      35.65699569      -7.802E-07    202.69    <-- DIS
     911      35.65695656      35.65698432      -7.785E-07    202.91    <-- DIS
     912      35.65694529      35.65697299      -7.768E-07    203.13    <-- DIS
     913      35.65693408      35.65696172      -7.752E-07    203.35    <-- DIS
     914      35.65692290      35.65695048      -7.735E-07    203.57    <-- DIS
     915      35.65691178      35.65693930      -7.718E-07    203.79    <-- DIS
     916      35.65690070      35.65692816      -7.702E-07    204.00    <-- DIS
     917      35.65688967      35.65691707      -7.685E-07    204.22    <-- DIS
     918      35.65687868      35.65690602      -7.669E-07    204.44    <-- DIS
     919      35.65686773      35.65689502      -7.652E-07    204.66    <-- DIS
     920      35.65685683      35.65688406      -7.636E-07    204.87    <-- DIS
     921      35.65684597      35.65687314      -7.620E-07    205.09    <-- DIS
     922      35.65683516      35.65686227      -7.604E-07    205.31    <-- DIS
     923      35.65682439      35.65685144      -7.588E-07    205.53    <-- DIS
     924      35.65681366      35.65684066      -7.572E-07    205.75    <-- DIS
     925      35.65680297      35.65682992      -7.556E-07    205.97    <-- DIS
     926      35.65679233      35.65681922      -7.540E-07    206.19    <-- DIS
     927      35.65678173      35.65680856      -7.524E-07    206.41    <-- DIS
     928      35.65677117      35.65679794      -7.508E-07    206.63    <-- DIS
     929      35.65676065      35.65678736      -7.493E-07    206.86    <-- DIS
     930      35.65675017      35.65677683      -7.477E-07    207.07    <-- DIS
     931      35.65673973      35.65676633      -7.462E-07    207.29    <-- DIS
     932      35.65672933      35.65675588      -7.447E-07    207.51    <-- DIS
     933      35.65671897      35.65674546      -7.431E-07    207.73    <-- DIS
     934      35.65670864      35.65673509      -7.416E-07    207.95    <-- DIS
     935      35.65669836      35.65672475      -7.401E-07    208.17    <-- DIS
     936      35.65668812      35.65671445      -7.386E-07    208.39    <-- DIS
     937      35.65667791      35.65670419      -7.371E-07    208.60    <-- DIS
     938      35.65666774      35.65669397      -7.356E-07    208.83    <-- DIS
     939      35.65665761      35.65668379      -7.341E-07    209.05    <-- DIS
     940      35.65664752      35.65667364      -7.326E-07    209.27    <-- DIS
     941      35.65663747      35.65666354      -7.311E-07    209.49    <-- DIS
     942      35.65662745      35.65665347      -7.297E-07    209.71    <-- DIS
     943      35.65661746      35.65664343      -7.282E-07    209.93    <-- DIS
     944      35.65660752      35.65663343      -7.268E-07    210.15    <-- DIS
     945      35.65659761      35.65662347      -7.253E-07    210.37    <-- DIS
     946      35.65658773      35.65661354      -7.239E-07    210.59    <-- DIS
     947      35.65657789      35.65660365      -7.225E-07    210.81    <-- DIS
     948      35.65656809      35.65659380      -7.211E-07    211.04    <-- DIS
     949      35.65655832      35.65658398      -7.196E-07    211.26    <-- DIS
     950      35.65654858      35.65657419      -7.182E-07    211.48    <-- DIS
     951      35.65653888      35.65656444      -7.168E-07    211.70    <-- DIS
     952      35.65652921      35.65655472      -7.155E-07    211.92    <-- DIS
     953      35.65651958      35.65654504      -7.141E-07    212.14    <-- DIS
     954      35.65650997      35.65653539      -7.127E-07    212.36    <-- DIS
     955      35.65650040      35.65652577      -7.113E-07    212.58    <-- DIS
     956      35.65649087      35.65651618      -7.100E-07    212.80    <-- DIS
     957      35.65648137      35.65650663      -7.086E-07    213.02    <-- DIS
     958      35.65647189      35.65649711      -7.073E-07    213.23    <-- DIS
     959      35.65646245      35.65648763      -7.059E-07    213.45    <-- DIS
     960      35.65645305      35.65647817      -7.046E-07    213.67    <-- DIS
     961      35.65644367      35.65646875      -7.033E-07    213.89    <-- DIS
     962      35.65643432      35.65645935      -7.020E-07    214.10    <-- DIS
     963      35.65642501      35.65644999      -7.006E-07    214.32    <-- DIS
     964      35.65641573      35.65644066      -6.993E-07    214.54    <-- DIS
     965      35.65640647      35.65643136      -6.980E-07    214.76    <-- DIS
     966      35.65639725      35.65642209      -6.968E-07    214.98    <-- DIS
     967      35.65638805      35.65641285      -6.955E-07    215.20    <-- DIS
     968      35.65637889      35.65640364      -6.942E-07    215.42    <-- DIS
     969      35.65636976      35.65639446      -6.929E-07    215.64    <-- DIS
     970      35.65636065      35.65638531      -6.917E-07    215.86    <-- DIS
     971      35.65635157      35.65637619      -6.904E-07    216.08    <-- DIS
     972      35.65634253      35.65636710      -6.892E-07    216.29    <-- DIS
     973      35.65633351      35.65635804      -6.879E-07    216.51    <-- DIS
     974      35.65632451      35.65634900      -6.867E-07    216.73    <-- DIS
     975      35.65631555      35.65633999      -6.855E-07    216.95    <-- DIS
     976      35.65630662      35.65633101      -6.843E-07    217.16    <-- DIS
     977      35.65629771      35.65632206      -6.830E-07    217.38    <-- DIS
     978      35.65628883      35.65631314      -6.818E-07    217.60    <-- DIS
     979      35.65627997      35.65630424      -6.806E-07    217.82    <-- DIS
     980      35.65627114      35.65629537      -6.794E-07    218.04    <-- DIS
     981      35.65626234      35.65628653      -6.783E-07    218.26    <-- DIS
     982      35.65625357      35.65627771      -6.771E-07    218.48    <-- DIS
     983      35.65624482      35.65626892      -6.759E-07    218.70    <-- DIS
     984      35.65623610      35.65626016      -6.747E-07    218.92    <-- DIS
     985      35.65622740      35.65625142      -6.736E-07    219.14    <-- DIS
     986      35.65621873      35.65624271      -6.724E-07    219.36    <-- DIS
     987      35.65621009      35.65623402      -6.713E-07    219.58    <-- DIS
     988      35.65620147      35.65622536      -6.702E-07    219.79    <-- DIS
     989      35.65619287      35.65621673      -6.690E-07    220.01    <-- DIS
     990      35.65618430      35.65620812      -6.679E-07    220.23    <-- DIS
     991      35.65617576      35.65619953      -6.668E-07    220.45    <-- DIS
     992      35.65616723      35.65619097      -6.657E-07    220.67    <-- DIS
     993      35.65615874      35.65618243      -6.646E-07    220.88    <-- DIS
     994      35.65615026      35.65617392      -6.635E-07    221.10    <-- DIS
     995      35.65614181      35.65616543      -6.624E-07    221.32    <-- DIS
     996      35.65613339      35.65615697      -6.613E-07    221.54    <-- DIS
     997      35.65612498      35.65614852      -6.602E-07    221.76    <-- DIS
     998      35.65611660      35.65614011      -6.591E-07    221.98    <-- DIS
     999      35.65610825      35.65613171      -6.581E-07    222.20    <-- DIS
    1000      35.65609991      35.65612334      -6.570E-07    222.42    <-- DIS

     <<< Warning: Maximum number of disentanglement iterations reached >>>
          <<< Disentanglement convergence criteria not satisfied >>>

        Final Omega_I    35.65612334 (Ang^2)

 +----------------------------------------------------------------------------+

 Time to disentangle bands    220.169 (sec)

 Writing checkpoint file wannier90.chk... done

 
 *------------------------------- WANNIERISE ---------------------------------*
 +--------------------------------------------------------------------+<-- CONV
 | Iter  Delta Spread     RMS Gradient      Spread (Ang^2)      Time  |<-- CONV
 +--------------------------------------------------------------------+<-- CONV
 
 ------------------------------------------------------------------------------
 Initial State
  WF centre and spread    1  ( -0.029931, -0.014908, -0.137614 )     5.68653595
  WF centre and spread    2  ( -0.242264, -0.053208,  0.021021 )    10.69122293
  WF centre and spread    3  ( -0.045328, -0.134903,  0.033405 )     8.12363344
  WF centre and spread    4  (  1.398547,  1.457526,  1.653109 )    10.57867908
  WF centre and spread    5  (  1.546624,  1.426252,  1.445976 )     5.75369395
  WF centre and spread    6  (  1.383259,  1.537526,  1.451090 )     8.20445647
  WF centre and spread    7  (  0.684273,  0.691159,  0.708553 )     8.66447256
  WF centre and spread    8  (  0.015578, -0.043317, -0.238864 )    10.57606424
  WF centre and spread    9  ( -0.132468, -0.012034, -0.031873 )     5.75448976
  WF centre and spread   10  (  0.030929, -0.123350, -0.036964 )     8.20496196
  WF centre and spread   11  (  1.444122,  1.429083,  1.551746 )     5.68759212
  WF centre and spread   12  (  1.656348,  1.467367,  1.393136 )    10.68948427
  WF centre and spread   13  (  1.459453,  1.549110,  1.380825 )     8.12301829
  WF centre and spread   14  (  0.729905,  0.723038,  0.705618 )     8.66433456
  Sum of centres and spreads (  9.899050,  9.899341,  9.899164 )   115.40263959
 
      0     0.115E+03     0.0000000000      115.4026395888     222.85  <-- CONV
        O_D=      6.2640744 O_OD=     73.4824419 O_TOT=    115.4026396 <-- SPRD
 ------------------------------------------------------------------------------
 Final State
  WF centre and spread    1  ( -0.029931, -0.014908, -0.137614 )     5.68653595
  WF centre and spread    2  ( -0.242264, -0.053208,  0.021021 )    10.69122293
  WF centre and spread    3  ( -0.045328, -0.134903,  0.033405 )     8.12363344
  WF centre and spread    4  (  1.398547,  1.457526,  1.653109 )    10.57867908
  WF centre and spread    5  (  1.546624,  1.426252,  1.445976 )     5.75369395
  WF centre and spread    6  (  1.383259,  1.537526,  1.451090 )     8.20445647
  WF centre and spread    7  (  0.684273,  0.691159,  0.708553 )     8.66447256
  WF centre and spread    8  (  0.015578, -0.043317, -0.238864 )    10.57606424
  WF centre and spread    9  ( -0.132468, -0.012034, -0.031873 )     5.75448976
  WF centre and spread   10  (  0.030929, -0.123350, -0.036964 )     8.20496196
  WF centre and spread   11  (  1.444122,  1.429083,  1.551746 )     5.68759212
  WF centre and spread   12  (  1.656348,  1.467367,  1.393136 )    10.68948427
  WF centre and spread   13  (  1.459453,  1.549110,  1.380825 )     8.12301829
  WF centre and spread   14  (  0.729905,  0.723038,  0.705618 )     8.66433456
  Sum of centres and spreads (  9.899050,  9.899341,  9.899164 )   115.40263959
 
         Spreads (Ang^2)       Omega I      =    35.656123340
        ================       Omega D      =     6.264074396
                               Omega OD     =    73.482441853
    Final Spread (Ang^2)       Omega Total  =   115.402639589
 ------------------------------------------------------------------------------
 Time for wannierise            0.058 (sec)

 Writing checkpoint file wannier90.chk... done

 *---------------------------------------------------------------------------*
 |                               PLOTTING                                    |
 *---------------------------------------------------------------------------*
 
 
 Calculating interpolated band-structure
 
 Time to calculate interpolated band structure       0.135 (sec)
 
 Time for plotting              0.798 (sec)
 Total Execution Time         223.707 (sec)

 *===========================================================================*
 |                             TIMING INFORMATION                            |
 *===========================================================================*
 |    Tag                                                Ncalls      Time (s)|
 |---------------------------------------------------------------------------|
 |kmesh: get                                        :         1         0.312|
 |overlap: read                                     :         1         2.216|
 |dis: main                                         :         1       220.169|
 |wann: main                                        :         1         0.058|
 |plot: main                                        :         1         0.798|
 *---------------------------------------------------------------------------*
 
 All done: wannier90 exiting
