<?xml version="1.0" encoding="UTF-8" ?>
<psml version="1.1" energy_unit="hartree" length_unit="bohr"
 uuid="1d199580-4728-11e8-74b9-45df666a9ad3"
 xmlns="http://esl.cecam.org/PSML/ns/1.1">
<provenance creator="ONCVPSP-3.3.0+psml-3.3.0-73 (fully-relativistic)"
 date="2018-04-23">
<annotation action="semilocal-pseudopotential-generation"
 action-cont="projectors-generation" />
<input-file name="oncvpsp-input">
<![CDATA[# atsym z nc nv iexc psfile
Bi 83 12 3 4 both
# n l f
1 0 2.0
2 0 2.0
2 1 6.0
3 0 2.0
3 1 6.0
3 2 10.0
4 0 2.0
4 1 6.0
4 2 10.0
5 0 2.0
5 1 6.0
4 3 14.0
5 2 10.0
6 0 2.0
6 1 3.0
# lmax
2
# l rc ep ncon nbas qcut
0 2.4 0.0 4 7 3.6
1 2.5 0.0 4 7 4.5
2 2.1 0.0 4 7 8.7
# lloc lpopt rc5 dvloc0
4 5 2.0 0.0
# l nproj debl
0 2 1.9
1 2 2.5
2 2 1.2
# icmod fcfact rcfact
3 6.0 1.34
# epsh1 epsh2 depsh
-12.0 12.0 0.02
# rlmax drl
6.0 0.01
 0
]]>
</input-file>
</provenance>
<pseudo-atom-spec atomic-label="Bi" atomic-number="83" z-pseudo="15"
 flavor="Hamann&apos;s oncvpsp" relativity="dirac" spin-dft="no"
 core-corrections="yes">
<annotation pseudo-energy="-71.1391457560" />
<exchange-correlation>
<annotation oncvpsp-xc-code="4" oncvpsp-xc-type="GGA -- Perdew-Burke-Ernzerhof" />
<libxc-info number-of-functionals="2">
<functional name="Perdew, Burke &amp; Ernzerhof (GGA)" type="exchange" id="101" />
<functional name="Perdew, Burke &amp; Ernzerhof (GGA)" type="correlation"
 id="130" />
</libxc-info>
</exchange-correlation>
<valence-configuration total-valence-charge="15">
<shell n="5" l="d" occupation="10" />
<shell n="6" l="s" occupation="2" />
<shell n="6" l="p" occupation="3" />
</valence-configuration>
</pseudo-atom-spec>
<grid npts="457">
<annotation type="sampled from oncvpsp log grid"
 recipe="r(i:1..N) = r1*exp(a*(i-1)) + r=0; resampled"
 recipe-cont="r1: scale; a: step" scale="0.602409638554E-05"
 step="0.119285708653E-01" delta="0.500000000000E-02" rmax="44.0626872033" />
<grid-data>
  0.000000000000E+00  5.031540399417E-03  1.005010708672E-02  1.507676322460E-02
  2.031519180407E-02  2.548300647672E-02  3.084173950167E-02  3.601517482036E-02
  4.106493736582E-02  4.626752728992E-02  5.151110926994E-02  5.666892867097E-02
  6.234320173317E-02  6.777237261092E-02  7.280073515825E-02  7.820217642384E-02
  8.400437693564E-02  8.916706618068E-02  9.464704080075E-02  1.004638003250E-01
  1.066380426725E-01  1.118495432830E-01  1.173157347894E-01  1.230490641731E-01
  1.290625867116E-01  1.353699957055E-01  1.419856536601E-01  1.471587203454E-01
  1.525202611353E-01  1.580771428440E-01  1.638364824694E-01  1.698056563082E-01
  1.759923094030E-01  1.824043653339E-01  1.890500363665E-01  1.959378339698E-01
  2.030765797176E-01  2.104754165862E-01  2.155571350442E-01  2.207615465127E-01
  2.260916132918E-01  2.315503692031E-01  2.371409213171E-01  2.428664517214E-01
  2.487302193317E-01  2.547355617473E-01  2.608858971501E-01  2.671847262509E-01
  2.736356342815E-01  2.802422930356E-01  2.870084629587E-01  2.939379952883E-01
  3.010348342466E-01  3.083030192846E-01  3.157466873822E-01  3.233700754024E-01
  3.311775225029E-01  3.391734726062E-01  3.473624769288E-01  3.557491965718E-01
  3.643384051738E-01  3.731349916283E-01  3.821439628662E-01  3.913704467057E-01
  4.008196947709E-01  4.104970854815E-01  4.204081271133E-01  4.254530246387E-01
  4.305584609344E-01  4.357251624656E-01  4.409538644152E-01  4.462453107881E-01
  4.516002545176E-01  4.570194575718E-01  4.625036910627E-01  4.680537353554E-01
  4.736703801797E-01  4.793544247418E-01  4.851066778387E-01  4.909279579728E-01
  4.968190934685E-01  5.027809225901E-01  5.088142936612E-01  5.149200651851E-01
  5.210991059673E-01  5.273522952389E-01  5.336805227818E-01  5.400846890552E-01
  5.465657053239E-01  5.531244937877E-01  5.597619877132E-01  5.664791315658E-01
  5.732768811445E-01  5.801562037183E-01  5.871180781629E-01  5.941634951008E-01
  6.012934570421E-01  6.085089785266E-01  6.158110862689E-01  6.232008193041E-01
  6.306792291358E-01  6.382473798854E-01  6.459063484440E-01  6.536572246253E-01
  6.615011113208E-01  6.694391246567E-01  6.774723941526E-01  6.856020628824E-01
  6.938292876370E-01  7.021552390886E-01  7.105811019577E-01  7.191080751812E-01
  7.277373720834E-01  7.364702205484E-01  7.453078631950E-01  7.542515575533E-01
  7.633025762439E-01  7.724622071589E-01  7.817317536448E-01  7.911125346885E-01
  8.006058851048E-01  8.102131557260E-01  8.199357135947E-01  8.297749421579E-01
  8.397322414638E-01  8.498090283613E-01  8.600067367017E-01  8.703268175421E-01
  8.807707393526E-01  8.913399882248E-01  9.020360680835E-01  9.128605009005E-01
  9.238148269113E-01  9.349006048343E-01  9.461194120923E-01  9.574728450374E-01
  9.689625191778E-01  9.805900694080E-01  9.923571502409E-01  1.004265436044E+00
  1.016316621276E+00  1.028512420732E+00  1.040854569780E+00  1.053344824618E+00
  1.065984962513E+00  1.078776782063E+00  1.091722103448E+00  1.104822768689E+00
  1.118080641914E+00  1.131497609617E+00  1.145075580932E+00  1.158816487903E+00
  1.172722285758E+00  1.186794953187E+00  1.201036492625E+00  1.215448930537E+00
  1.230034317703E+00  1.244794729516E+00  1.259732266270E+00  1.274849053465E+00
  1.290147242107E+00  1.305629009012E+00  1.321296557120E+00  1.337152115806E+00
  1.353197941195E+00  1.369436316490E+00  1.385869552288E+00  1.402499986915E+00
  1.419329986758E+00  1.436361946599E+00  1.453598289958E+00  1.471041469438E+00
  1.488693967071E+00  1.506558294676E+00  1.524636994212E+00  1.542932638143E+00
  1.561447829800E+00  1.580185203758E+00  1.599147426203E+00  1.618337195317E+00
  1.637757241661E+00  1.657410328561E+00  1.677299252504E+00  1.697426843534E+00
  1.717795965656E+00  1.738409517244E+00  1.759270431451E+00  1.780381676629E+00
  1.801746256748E+00  1.823367211829E+00  1.845247618371E+00  1.867390589792E+00
  1.889799276869E+00  1.912476868191E+00  1.935426590610E+00  1.958651709697E+00
  1.982155530213E+00  2.005941396576E+00  2.030012693335E+00  2.054372845655E+00
  2.079025319803E+00  2.103973623640E+00  2.129221307124E+00  2.154771962810E+00
  2.180629226363E+00  2.206796777080E+00  2.233278338405E+00  2.260077678465E+00
  2.287198610607E+00  2.314644993934E+00  2.342420733862E+00  2.370529782668E+00
  2.398976140060E+00  2.427763853741E+00  2.456897019986E+00  2.486379784225E+00
  2.516216341636E+00  2.546410937736E+00  2.576967868988E+00  2.607891483416E+00
  2.639186181217E+00  2.670856415392E+00  2.702906692377E+00  2.735341572685E+00
  2.768165671557E+00  2.801383659616E+00  2.835000263531E+00  2.869020266694E+00
  2.903448509894E+00  2.938289892013E+00  2.973549370717E+00  3.009231963166E+00
  3.045342746724E+00  3.081886859684E+00  3.118869502001E+00  3.156295936025E+00
  3.194171487257E+00  3.232501545104E+00  3.271291563645E+00  3.310547062409E+00
  3.350273627158E+00  3.390476910684E+00  3.431162633612E+00  3.472336585215E+00
  3.514004624238E+00  3.556172679729E+00  3.598846751885E+00  3.642032912908E+00
  3.685737307863E+00  3.729966155557E+00  3.774725749424E+00  3.820022458417E+00
  3.865862727918E+00  3.912253080653E+00  3.959200117621E+00  4.006710519032E+00
  4.054791045261E+00  4.103448537804E+00  4.152689920258E+00  4.202522199301E+00
  4.252952465692E+00  4.303987895281E+00  4.355635750024E+00  4.407903379024E+00
  4.460798219573E+00  4.514327798207E+00  4.568499731786E+00  4.623321728567E+00
  4.678801589310E+00  4.734947208382E+00  4.791766574882E+00  4.849267773781E+00
  4.907458987066E+00  4.966348494911E+00  5.025944676850E+00  5.086256012972E+00
  5.147291085128E+00  5.209058578150E+00  5.271567281087E+00  5.334826088460E+00
  5.398844001522E+00  5.463630129540E+00  5.529193691095E+00  5.595544015388E+00
  5.662690543572E+00  5.730642830095E+00  5.799410544056E+00  5.869003470585E+00
  5.939431512232E+00  6.010704690379E+00  6.082833146664E+00  6.155827144423E+00
  6.229697070157E+00  6.304453434998E+00  6.380106876218E+00  6.456668158733E+00
  6.534148176638E+00  6.612557954757E+00  6.691908650215E+00  6.772211554017E+00
  6.853478092665E+00  6.935719829777E+00  7.018948467735E+00  7.103175849347E+00
  7.188413959540E+00  7.274674927054E+00  7.361971026179E+00  7.450314678493E+00
  7.539718454635E+00  7.630195076090E+00  7.721757417004E+00  7.814418506008E+00
  7.908191528080E+00  8.003089826417E+00  8.099126904334E+00  8.196316427186E+00
  8.294672224312E+00  8.394208291004E+00  8.494938790496E+00  8.596878055982E+00
  8.700040592653E+00  8.804441079765E+00  8.910094372722E+00  9.017015505195E+00
  9.125219691257E+00  9.234722327553E+00  9.345538995483E+00  9.457685463429E+00
  9.571177688990E+00  9.686031821258E+00  9.802264203113E+00  9.919891373550E+00
  1.003893007003E+01  1.015939723087E+01  1.028130999764E+01  1.040468571762E+01
  1.052954194623E+01  1.065589644958E+01  1.078376720698E+01  1.091317241346E+01
  1.104413048242E+01  1.117666004821E+01  1.131077996879E+01  1.144650932842E+01
  1.158386744036E+01  1.172287384964E+01  1.186354833584E+01  1.200591091587E+01
  1.214998184686E+01  1.229578162902E+01  1.244333100857E+01  1.259265098067E+01
  1.274376279244E+01  1.289668794595E+01  1.305144820130E+01  1.320806557971E+01
  1.336656236667E+01  1.352696111507E+01  1.368928464845E+01  1.385355606423E+01
  1.401979873700E+01  1.418803632185E+01  1.435829275771E+01  1.453059227080E+01
  1.470495937805E+01  1.488141889059E+01  1.505999591728E+01  1.524071586828E+01
  1.542360445870E+01  1.560868771221E+01  1.579599196475E+01  1.598554386833E+01
  1.617737039475E+01  1.637149883949E+01  1.656795682556E+01  1.676677230747E+01
  1.696797357516E+01  1.717158925806E+01  1.737764832916E+01  1.758618010911E+01
  1.779721427042E+01  1.801078084166E+01  1.822691021176E+01  1.844563313430E+01
  1.866698073191E+01  1.889098450070E+01  1.911767631470E+01  1.934708843048E+01
  1.957925349165E+01  1.981420453355E+01  2.005197498795E+01  2.029259868780E+01
  2.053610987206E+01  2.078254319052E+01  2.103193370881E+01  2.128431691331E+01
  2.153972871627E+01  2.179820546087E+01  2.205978392640E+01  2.232450133352E+01
  2.259239534952E+01  2.286350409371E+01  2.313786614284E+01  2.341552053655E+01
  2.369650678299E+01  2.398086486439E+01  2.426863524276E+01  2.455985886567E+01
  2.485457717206E+01  2.515283209812E+01  2.545466608330E+01  2.576012207630E+01
  2.606924354122E+01  2.638207446371E+01  2.669865935728E+01  2.701904326956E+01
  2.734327178880E+01  2.767139105026E+01  2.800344774287E+01  2.833948911578E+01
  2.867956298517E+01  2.902371774099E+01  2.937200235389E+01  2.972446638213E+01
  3.008115997872E+01  3.044213389846E+01  3.080743950524E+01  3.117712877931E+01
  3.155125432466E+01  3.192986937655E+01  3.231302780907E+01  3.270078414278E+01
  3.309319355250E+01  3.349031187513E+01  3.389219561763E+01  3.429890196504E+01
  3.471048878862E+01  3.512701465408E+01  3.554853882993E+01  3.597512129589E+01
  3.640682275144E+01  3.684370462446E+01  3.728582907995E+01  3.773325902891E+01
  3.818605813726E+01  3.864429083490E+01  3.910802232492E+01  3.957731859282E+01
  4.005224641594E+01  4.053287337293E+01  4.101926785340E+01  4.151149906764E+01
  4.200963705646E+01  4.251375270113E+01  4.302391773355E+01  4.354020474635E+01
  4.406268720331E+01
</grid-data>
</grid>
<valence-charge total-charge="15" is-unscreening-charge="yes"
 rescaled-to-z-pseudo="no">
<radfunc>
<data npts="457">
  1.000089398308E-02  1.000490645586E-02  1.001826353352E-02  1.004509222883E-02
  1.009474331154E-02  1.017585110261E-02  1.030806241083E-02  1.049912784070E-02
  1.076451200307E-02  1.114152625450E-02  1.165358129270E-02  1.231473144346E-02
  1.325898741244E-02  1.441461836323E-02  1.574168952217E-02  1.748379771718E-02
  1.977260778611E-02  2.222106182032E-02  2.529708721827E-02  2.916198887155E-02
  3.401798330507E-02  3.878448570742E-02  4.450425291038E-02  5.136614867901E-02
  5.959544823295E-02  6.946048653467E-02  8.128039371873E-02  9.165359934475E-02
  1.035232855546E-01  1.170995183307E-01  1.326202830547E-01  1.503548100487E-01
  1.706072021386E-01  1.937203673174E-01  2.200802517401E-01  2.501203578499E-01
  2.843265188715E-01  3.232418835841E-01  3.520980158435E-01  3.835108062684E-01
  4.176902076612E-01  4.548608677381E-01  4.952627627320E-01  5.391517910205E-01
  5.868003115892E-01  6.384976097404E-01  6.945502698247E-01  7.552824318982E-01
  8.210359061110E-01  8.921701153022E-01  9.690618327587E-01  1.052104678397E+00
  1.141708332818E+00  1.238297424792E+00  1.342310043904E+00  1.454195826302E+00
  1.574413558076E+00  1.703428237645E+00  1.841707536130E+00  1.989717592995E+00
  2.147918083721E+00  2.316756497124E+00  2.496661562556E+00  2.688035771962E+00
  2.891246949143E+00  3.106618828940E+00  3.334420623018E+00  3.453049160069E+00
  3.574855566909E+00  3.699852895740E+00  3.828048465571E+00  3.959443421728E+00
  4.094032282334E+00  4.231802472767E+00  4.372733849237E+00  4.516798212853E+00
  4.663958815718E+00  4.814169860808E+00  4.967375997643E+00  5.123511815938E+00
  5.282501339719E+00  5.444257524611E+00  5.608681761267E+00  5.775663388204E+00
  5.945079217534E+00  6.116793077417E+00  6.290655375284E+00  6.466502686190E+00
  6.644157370918E+00  6.823427228713E+00  7.004105189799E+00  7.185969053037E+00
  7.368781274343E+00  7.552288811641E+00  7.736223032326E+00  7.920299689319E+00
  8.104218971910E+00  8.287665637612E+00  8.470309231265E+00  8.651804397553E+00
  8.831791292972E+00  9.009896103088E+00  9.185731670657E+00  9.358898239806E+00
  9.528984321023E+00  9.695567681180E+00  9.858216462129E+00  1.001649043069E+01
  1.016994236198E+01  1.031811955703E+01  1.046056549462E+01  1.059682161596E+01
  1.072642923965E+01  1.084893160277E+01  1.096387602275E+01  1.107081617252E+01
  1.116931446036E+01  1.125894450367E+01  1.133929368413E+01  1.140996577005E+01
  1.147058358964E+01  1.152079173707E+01  1.156025929153E+01  1.158868252755E+01
  1.160578759323E+01  1.161133313156E+01  1.160511281868E+01  1.158695779143E+01
  1.155673893632E+01  1.151436901059E+01  1.145980456654E+01  1.139304764967E+01
  1.131414724229E+01  1.122320042452E+01  1.112035322654E+01  1.100580114722E+01
  1.087978931711E+01  1.074261228609E+01  1.059461341964E+01  1.043618389133E+01
  1.026776126328E+01  1.008982765125E+01  9.902907475800E+00  9.707564806496E+00
  9.504400311582E+00  9.294047831442E+00  9.077170599849E+00  8.854457142882E+00
  8.626616890917E+00  8.394375544531E+00  8.158470240049E+00  7.919644564922E+00
  7.678643476936E+00  7.436208184284E+00  7.193071045734E+00  6.949950551393E+00
  6.707546444784E+00  6.466535046141E+00  6.227564834874E+00  5.991252346149E+00
  5.758178432390E+00  5.528884935408E+00  5.303871808749E+00  5.083594722994E+00
  4.868463179097E+00  4.658839146745E+00  4.455036236208E+00  4.257319403498E+00
  4.065905180022E+00  3.880962409518E+00  3.702613467104E+00  3.530935927916E+00
  3.365964646241E+00  3.207694200409E+00  3.056081654094E+00  2.911049581192E+00
  2.772489299121E+00  2.640264254252E+00  2.514213503181E+00  2.394155234713E+00
  2.279890279544E+00  2.171205557718E+00  2.067877417804E+00  1.969674826271E+00
  1.876362370588E+00  1.787703045038E+00  1.703460793903E+00  1.623402792473E+00
  1.547301452136E+00  1.474936141483E+00  1.406094620778E+00  1.340574192338E+00
  1.278182574084E+00  1.218738507827E+00  1.162072117619E+00  1.108025036687E+00
  1.056450324000E+00  1.007212193432E+00  9.601855796887E-01  9.152555656705E-01
  8.723166957560E-01  8.312721987568E-01  7.920330856016E-01  7.545170203028E-01
  7.186472411783E-01  6.843520160911E-01  6.515641169666E-01  6.202202515750E-01
  5.902605250953E-01  5.616279226760E-01  5.342678294849E-01  5.081275999775E-01
  4.831561868310E-01  4.593038381956E-01  4.365219807803E-01  4.147636231835E-01
  3.939840149218E-01  3.741406223419E-01  3.551928747711E-01  3.371021733078E-01
  3.198317836261E-01  3.033467216107E-01  2.876136576383E-01  2.726008206073E-01
  2.582779075016E-01  2.446159976949E-01  2.315874720696E-01  2.191659368835E-01
  2.073261522873E-01  1.960439653698E-01  1.852962475841E-01  1.750608363901E-01
  1.653164809310E-01  1.560427915539E-01  1.472201929742E-01  1.388298808785E-01
  1.308537817616E-01  1.232745157883E-01  1.160753624791E-01  1.092402290171E-01
  1.027536209835E-01  9.660061533285E-02  9.076683542962E-02  8.523842797454E-02
  8.000204165879E-02  7.504480739436E-02  7.035431997825E-02  6.591862105842E-02
  6.172618327896E-02  5.776589549150E-02  5.402704892943E-02  5.049932424969E-02
  4.717277935572E-02  4.403783792153E-02  4.108527854917E-02  3.830622448441E-02
  3.569213384125E-02  3.323479027479E-02  3.092629405367E-02  2.875905348594E-02
  2.672577665642E-02  2.481946343647E-02  2.303339773064E-02  2.136113992733E-02
  1.979651952356E-02  1.833362789673E-02  1.696681119871E-02  1.569066335084E-02
  1.450001912061E-02  1.338994726409E-02  1.235574372066E-02  1.139292484949E-02
  1.049722070007E-02  9.664568311544E-03  8.891105038496E-03  8.173161902849E-03
  7.507256974135E-03  6.890088782166E-03  6.318529767997E-03  5.789619780539E-03
  5.300559627463E-03  4.848704689928E-03  4.431558611415E-03  4.046767071346E-03
  3.692111654338E-03  3.365503825919E-03  3.064979025236E-03  2.788690884855E-03
  2.534905587131E-03  2.301996365875E-03  2.088438161163E-03  1.892802434193E-03
  1.713752148043E-03  1.550036919116E-03  1.400488342965E-03  1.264015497046E-03
  1.139600621911E-03  1.026294981211E-03  9.232148999316E-04  8.295379792688E-04
  7.444994857057E-04  6.673889110323E-04  5.975466993554E-04  5.343611365420E-04
  4.772653970436E-04  4.257347426584E-04  3.792838675031E-04  3.374643832852E-04
  2.998624388707E-04  2.660964681441E-04  2.358150602214E-04  2.086949462155E-04
  1.844390969332E-04  1.627749261100E-04  1.434525940373E-04  1.262434067028E-04
  1.109383058395E-04  9.734644554519E-05  8.529385139828E-05  7.462215823801E-05
  6.518742300630E-05  5.685900925176E-05  4.951854007995E-05  4.305891649383E-05
  3.738339820702E-05  3.240474413085E-05  2.804440983693E-05  2.423179938244E-05
  2.090356895779E-05  1.800297987892E-05  1.547929850199E-05  1.328724068796E-05
  1.138645849221E-05  9.741066800621E-06  8.319207680395E-06  7.092650262797E-06
  6.036424026519E-06  5.128483405338E-06  4.349401702512E-06  3.682092357047E-06
  3.111555673507E-06  2.624649197194E-06  2.209879989921E-06  1.857217137749E-06
  1.557922900432E-06  1.304400992307E-06  1.090060565348E-06  9.091945464925E-07
  7.568710625122E-07  6.288367661150E-07  5.214309560618E-07  4.315094614141E-07
  3.563773351813E-07  2.937294752240E-07  2.415983600223E-07  1.983081535637E-07
  1.624344969797E-07  1.327693645200E-07  1.082904179144E-07  8.813434610781E-08
  7.157372675583E-08  5.799699178123E-08  4.689112179186E-08  3.782673333292E-08
  3.044525892206E-08  2.444795272296E-08  1.958648470497E-08  1.565491337050E-08
  1.248285177427E-08  9.929663777837E-09  7.879547447456E-09  6.237380382545E-09
  4.925217718620E-09  3.879347743344E-09  3.047822649778E-09  2.388393073668E-09
  1.866784859911E-09  1.455265107460E-09  1.131452073335E-09  8.773300881556E-10
  6.784363517833E-10  5.231914342518E-10  4.023495914761E-10  3.085486969998E-10
  2.359427622105E-10  1.799027329416E-10  1.367735683784E-10  1.036775806765E-10
  7.835568688772E-11  5.903963962359E-11  4.434949545259E-11  3.321158204877E-11
  2.479306433406E-11  1.844991046798E-11  1.368564153797E-11  1.011873235131E-11
  7.456930473099E-12  5.477090024458E-12  4.009387234766E-12  2.925006113328E-12
  2.126563170841E-12  1.540686897316E-12  1.112286601346E-12  8.001411950236E-13
  5.735157143954E-13  4.095752485853E-13  2.914153742334E-13  2.065675212636E-13
  1.458688779707E-13  1.026110742339E-13  7.190126479772E-14  5.018443029159E-14
  3.488758100787E-14  2.415578056762E-14  1.665706054641E-14  1.143881876817E-14
  7.822538634809E-15  5.326916768831E-15  3.611964157702E-15  2.438527635698E-15
  1.639101290806E-15  1.096868645947E-15  7.307195961650E-16  4.845855847895E-16
  3.198820360882E-16  2.101767003832E-16  1.374453610508E-16  8.945436721755E-17
  5.793937404214E-17  3.734404609346E-17  2.395071655215E-17  1.528406970984E-17
  9.704129481536E-18  6.127761178087E-18  3.850759989902E-18  2.407167893079E-18
  1.496766320609E-18  9.256809477280E-19  5.693770730352E-19  3.482901156777E-19
  2.118632114572E-19  1.281484293111E-19  7.706970377437E-20  4.608239921188E-20
  2.739265546880E-20  0.000000000000E+00  0.000000000000E+00  0.000000000000E+00
  0.000000000000E+00  0.000000000000E+00  0.000000000000E+00  0.000000000000E+00
  0.000000000000E+00  0.000000000000E+00  0.000000000000E+00  0.000000000000E+00
  0.000000000000E+00
</data>
</radfunc>
</valence-charge>
<pseudocore-charge matching-radius="1.01631662128"
 number-of-continuous-derivatives="4">
<annotation model-charge-form="Teter function with specified parameters" />
<radfunc>
<data npts="290">
  6.382252275830E+01  6.381977034240E+01  6.381154212753E+01  6.379781357522E+01
  6.377766683575E+01  6.375195646742E+01  6.371918259307E+01  6.368164491696E+01
  6.363942662638E+01  6.359017842324E+01  6.353464786364E+01  6.347426658792E+01
  6.340125981735E+01  6.332497367563E+01  6.324872682707E+01  6.316085283017E+01
  6.305959756622E+01  6.296355304888E+01  6.285550459283E+01  6.273397529936E+01
  6.259731285229E+01  6.247585298921E+01  6.234248625521E+01  6.219607344086E+01
  6.203537222757E+01  6.185902910524E+01  6.166557093185E+01  6.150828721380E+01
  6.133975231524E+01  6.115919469095E+01  6.096579500690E+01  6.075868398490E+01
  6.053694028611E+01  6.029958846340E+01  6.004559701805E+01  5.977387660279E+01
  5.948327842006E+01  5.917259287282E+01  5.895368422903E+01  5.872489194493E+01
  5.848581150904E+01  5.823602604342E+01  5.797510637226E+01  5.770261115122E+01
  5.741808706475E+01  5.712106909934E+01  5.681108090096E+01  5.648763522607E+01
  5.615023449571E+01  5.579837146325E+01  5.543153000676E+01  5.504918605787E+01
  5.465080867949E+01  5.423586130552E+01  5.380380315620E+01  5.335409084343E+01
  5.288618018091E+01  5.239952821422E+01  5.189359548657E+01  5.136784855590E+01
  5.082176277919E+01  5.025482537980E+01  4.966653881293E+01  4.905642444410E+01
  4.842402655422E+01  4.776891668374E+01  4.709069832635E+01  4.674280952981E+01
  4.638901198073E+01  4.602926741190E+01  4.566354056588E+01  4.529179938417E+01
  4.491401520211E+01  4.453016294933E+01  4.414022135576E+01  4.374417316298E+01
  4.334200534086E+01  4.293370930931E+01  4.251928116493E+01  4.209872191236E+01
  4.167203770001E+01  4.123924005998E+01  4.080034615176E+01  4.035537900934E+01
  3.990436779135E+01  3.944734803379E+01  3.898436190470E+01  3.851545846049E+01
  3.804069390295E+01  3.756013183668E+01  3.707384352584E+01  3.658190814981E+01
  3.608441305655E+01  3.558145401312E+01  3.507313545208E+01  3.455957071306E+01
  3.404088227804E+01  3.351720199954E+01  3.298867132021E+01  3.245544148273E+01
  3.191767372843E+01  3.137553948344E+01  3.082922053061E+01  3.027890916589E+01
  2.972480833722E+01  2.916713176455E+01  2.860610403898E+01  2.804196069929E+01
  2.747494828405E+01  2.690532435723E+01  2.633335750554E+01  2.575932730536E+01
  2.518352425727E+01  2.460624968625E+01  2.402781560537E+01  2.344854454097E+01
  2.286876931743E+01  2.228883279940E+01  2.170908758961E+01  2.112989568042E+01
  2.055162805733E+01  1.997466425271E+01  1.939939184823E+01  1.882620592461E+01
  1.825550845739E+01  1.768770765766E+01  1.712321725708E+01  1.656245573632E+01
  1.600584549690E+01  1.545381197628E+01  1.490678270648E+01  1.436518631705E+01
  1.382945148340E+01  1.330000582191E+01  1.277727473391E+01  1.226168020083E+01
  1.175363953347E+01  1.125356407887E+01  1.076185788871E+01  1.027891635383E+01
  9.805124809990E+00  9.340857120636E+00  8.886474242946E+00  8.442322784139E+00
  8.008733555547E+00  7.586020132581E+00  7.174477429271E+00  6.774380296610E+00
  6.385982154432E+00  6.009513667025E+00  5.645181473084E+00  5.293166980946E+00
  4.953625240342E+00  4.626683902040E+00  4.312442276900E+00  4.010970505780E+00
  3.722308851618E+00  3.446467124766E+00  3.183424252180E+00  2.933128000583E+00
  2.695494862947E+00  2.470410116785E+00  2.257728061708E+00  2.057272442456E+00
  1.868837062270E+00  1.692186589865E+00  1.527057561611E+00  1.373159578598E+00
  1.230176696310E+00  1.097769002449E+00  9.755743762572E-01  8.632104203329E-01
  7.602765535838E-01  6.663562515754E-01  5.810194181530E-01  5.038248699078E-01
  4.343229128461E-01  3.720579885543E-01  3.165713652840E-01  2.674038477545E-01
  2.240984781398E-01  1.862031997156E-01  1.532734540421E-01  1.248746823849E-01
  1.005847023748E-01  7.999593170349E-02  6.271743196854E-02  4.837674763165E-02
  3.662151744211E-02  2.712083858661E-02  1.956636723673E-02  1.367314303417E-02
  9.180129327039E-03  5.850465578686E-03  3.471433227168E-03  1.854141281546E-03
  8.329429876148E-04  2.645998598818E-04  2.721412911437E-05  1.895506239870E-05
  1.566085422153E-04  3.739826136086E-04  6.202043045124E-04  8.579447884054E-04
  1.061610804911E-03  1.215540121362E-03  1.312237674293E-03  1.350686874741E-03
  1.334767431137E-03  1.271807011876E-03  1.171289247205E-03  1.043735103607E-03
  8.997687327270E-04  7.493727077835E-04  6.013313399355E-04  4.628547535082E-04
  3.393708311095E-04  2.344672461981E-04  1.499617877017E-04  8.607622083049E-05
  4.168714700609E-05  1.462679588065E-05  2.007414018280E-06  5.448524592632E-07
  6.859977497604E-06  1.774045173928E-05  3.035001791412E-05  4.237738626698E-05
  5.212187229220E-05  5.851774319430E-05  6.110351124571E-05  5.994589838450E-05
  5.553068297719E-05  4.863399356966E-05  4.018778780213E-05  3.115229097201E-05
  2.240620165749E-05  1.466271612249E-05  8.416157950383E-06  3.920544220809E-06
  1.198106267279E-06  7.292405037045E-08  2.226906594416E-07  1.240382194265E-06
  2.697355349587E-06  4.200109252751E-06  5.434501198735E-06  6.193376044327E-06
  6.386065997175E-06  6.030717486008E-06  5.232587344776E-06  4.153051725351E-06
  2.974901571699E-06  1.869481325375E-06  9.704070604555E-07  3.571361851686E-07
  4.980530649292E-08  0.000000000000E+00  0.000000000000E+00  0.000000000000E+00
  0.000000000000E+00  0.000000000000E+00  0.000000000000E+00  0.000000000000E+00
  0.000000000000E+00  0.000000000000E+00  0.000000000000E+00  0.000000000000E+00
  0.000000000000E+00  0.000000000000E+00  0.000000000000E+00  0.000000000000E+00
  0.000000000000E+00  0.000000000000E+00  0.000000000000E+00  0.000000000000E+00
  0.000000000000E+00  0.000000000000E+00  0.000000000000E+00  0.000000000000E+00
  0.000000000000E+00  0.000000000000E+00  0.000000000000E+00  0.000000000000E+00
  0.000000000000E+00  0.000000000000E+00  0.000000000000E+00  0.000000000000E+00
  0.000000000000E+00  0.000000000000E+00
</data>
</radfunc>
</pseudocore-charge>
<semilocal-potentials set="scalar_relativistic">
<slps n="6" l="s" rc="2.42776385374">
<radfunc>
<data npts="290">
  1.109239347187E+01  1.108752967968E+01  1.107299974713E+01  1.104879070664E+01
  1.101334000447E+01  1.096823058620E+01  1.091094030868E+01  1.084561315286E+01
  1.077250825841E+01  1.068771875197E+01  1.059273809091E+01  1.049020485594E+01
  1.036725578104E+01  1.023996562797E+01  1.011393116240E+01  9.970131627012E+00
  9.806335010731E+00  9.652816071214E+00  9.482221973870E+00  9.292964448494E+00
  9.083383880311E+00  8.899936150650E+00  8.701491450658E+00  8.487152104104E+00
  8.256027739491E+00  8.007248559187E+00  7.739980700742E+00  7.526924567409E+00
  7.302724731825E+00  7.067105913363E+00  6.819826184918E+00  6.560682535007E+00
  6.289516613242E+00  6.006220581391E+00  5.710742977624E+00  5.403094487434E+00
  5.083353501701E+00  4.751671331274E+00  4.524025636615E+00  4.291260706702E+00
  4.053481045649E+00  3.810808164381E+00  3.563380880097E+00  3.311355524156E+00
  3.054906051478E+00  2.794224045341E+00  2.529518612341E+00  2.261016163426E+00
  1.988960078049E+00  1.713610249900E+00  1.435242514035E+00  1.154147956795E+00
  8.706321114058E-01  5.850140438022E-01  2.976253347068E-01  8.808965586313E-03
 -2.810818824993E-01 -5.716851067850E-01 -8.626310258895E-01 -1.153543775557E+00
 -1.444042743697E+00 -1.733744030804E+00 -2.022261921470E+00 -2.309210352664E+00
 -2.594204364584E+00 -2.876861520369E+00 -3.156803281655E+00 -3.295638988129E+00
 -3.433656327910E+00 -3.570809656699E+00 -3.707053808731E+00 -3.842344131601E+00
 -3.976636519716E+00 -4.109887446345E+00 -4.242053994213E+00 -4.373093884636E+00
 -4.502965505160E+00 -4.631627935718E+00 -4.759040973294E+00 -4.885165155104E+00
 -5.009961780336E+00 -5.133392930463E+00 -5.255421488180E+00 -5.376011155032E+00
 -5.495126467778E+00 -5.612732813597E+00 -5.728796444205E+00 -5.843284489000E+00
 -5.956164967345E+00 -6.067406800123E+00 -6.176979820707E+00 -6.284854785486E+00
 -6.391003384144E+00 -6.495398249836E+00 -6.598012969484E+00 -6.698822094386E+00
 -6.797801151348E+00 -6.894926654569E+00 -6.990176118522E+00 -7.083528072040E+00
 -7.174962073885E+00 -7.264458730005E+00 -7.351999712742E+00 -7.437567782201E+00
 -7.521146809997E+00 -7.602721805570E+00 -7.682278945230E+00 -7.759805604052E+00
 -7.835290390715E+00 -7.908723185293E+00 -7.980095179984E+00 -8.049398922651E+00
 -8.116628363004E+00 -8.181778901142E+00 -8.244847438088E+00 -8.305832427846E+00
 -8.364733930419E+00 -8.421553665117E+00 -8.476295063361E+00 -8.528963320157E+00
 -8.579565443253E+00 -8.628110298973E+00 -8.674608653634E+00 -8.719073209426E+00
 -8.761518633601E+00 -8.801961579821E+00 -8.840420700520E+00 -8.876916649205E+00
 -8.911472071624E+00 -8.944111584844E+00 -8.974861743355E+00 -9.003750991364E+00
 -9.030809600607E+00 -9.056069593006E+00 -9.079564647658E+00 -9.101329991647E+00
 -9.121402274258E+00 -9.139819424208E+00 -9.156620489491E+00 -9.171845459496E+00
 -9.185535068987E+00 -9.197730583590E+00 -9.208473566345E+00 -9.217805624957E+00
 -9.225768139362E+00 -9.232401969300E+00 -9.237747141712E+00 -9.241842517978E+00
 -9.244725441276E+00 -9.246431364756E+00 -9.246993461748E+00 -9.246442219921E+00
 -9.244805022132E+00 -9.242105717799E+00 -9.238364189836E+00 -9.233595923628E+00